/*--------------------------------*- C++ -*----------------------------------*\
  =========                 |
  \\      /  F ield         | OpenFOAM: The Open Source CFD Toolbox
   \\    /   O peration     | Website:  https://openfoam.org
    \\  /    A nd           | Version:  6
     \\/     M anipulation  |
\*---------------------------------------------------------------------------*/
FoamFile
{
    version     2.0;
    format      ascii;
    class       volScalarField;
    location    "20.5";
    object      dsmcSigmaTcRMax;
}
// * * * * * * * * * * * * * * * * * * * * * * * * * * * * * * * * * * * * * //

dimensions      [0 3 -1 0 0 0 0];

internalField   nonuniform List<scalar> 
3600
(
4.514080456e-16
4.594900054e-16
4.480872901e-16
4.48847825e-16
4.484146021e-16
4.545600011e-16
4.483060434e-16
4.692870767e-16
4.642045166e-16
4.514762645e-16
4.387007449e-16
4.555960898e-16
4.517642077e-16
4.478993182e-16
4.50330638e-16
4.546130552e-16
4.473743831e-16
4.545391242e-16
4.404172977e-16
4.510330883e-16
4.492836333e-16
4.593888281e-16
4.497104085e-16
4.421358312e-16
4.704977408e-16
4.416880413e-16
4.535134221e-16
4.49308388e-16
4.399431021e-16
4.699804623e-16
4.70573297e-16
4.504228853e-16
4.565303744e-16
4.44006396e-16
4.694966758e-16
4.417759341e-16
4.369162267e-16
4.379521194e-16
4.559058506e-16
4.424962601e-16
4.455662774e-16
4.589212628e-16
4.424202647e-16
4.411560641e-16
4.669553687e-16
4.591850896e-16
4.474792949e-16
4.524267728e-16
4.559254858e-16
4.577332315e-16
4.494373998e-16
4.485189451e-16
4.573077997e-16
4.498977775e-16
4.517457233e-16
4.666687211e-16
4.451169117e-16
4.585624969e-16
4.5243735e-16
4.560075384e-16
4.473641203e-16
4.569289182e-16
4.565901473e-16
4.61012804e-16
4.43652074e-16
4.471485566e-16
4.578079692e-16
4.486316399e-16
4.403410286e-16
4.500910829e-16
4.485064481e-16
4.55104166e-16
4.550196017e-16
4.590104646e-16
4.730348258e-16
4.514456008e-16
4.388532375e-16
4.555148057e-16
4.472312463e-16
4.722202177e-16
4.628085427e-16
4.502666913e-16
4.453443979e-16
4.795772183e-16
4.517510622e-16
4.477207173e-16
4.555812687e-16
4.552958037e-16
4.47141732e-16
4.407864646e-16
4.438346304e-16
4.365488683e-16
4.424920438e-16
4.567192068e-16
4.564580994e-16
4.536635619e-16
4.5997979e-16
4.520560607e-16
4.453500481e-16
4.536358108e-16
4.495931503e-16
4.590650115e-16
4.386893547e-16
4.470835517e-16
4.423565341e-16
4.481398098e-16
4.613457138e-16
4.519832619e-16
4.554031713e-16
4.569438119e-16
4.670481862e-16
4.699801483e-16
4.571453608e-16
4.634562928e-16
4.570129305e-16
4.617374933e-16
4.568218363e-16
4.552430158e-16
4.674494015e-16
4.515656042e-16
4.436522568e-16
4.533084891e-16
4.520695067e-16
4.643730266e-16
4.391313406e-16
4.551107582e-16
4.592351664e-16
4.417633767e-16
4.470748634e-16
4.639466958e-16
4.551176322e-16
4.60106946e-16
4.811411589e-16
4.540897773e-16
4.637214145e-16
4.665369174e-16
4.528560353e-16
4.493899047e-16
4.411857236e-16
4.639058331e-16
4.443195894e-16
4.809073948e-16
4.463331063e-16
4.692610891e-16
4.416147369e-16
4.561013244e-16
4.487939261e-16
4.449908787e-16
4.42795316e-16
4.490416392e-16
4.345353918e-16
4.663668449e-16
4.405521982e-16
4.455117822e-16
4.495073696e-16
4.641617508e-16
4.617004627e-16
4.57233712e-16
4.532931635e-16
4.610024891e-16
4.521949697e-16
4.686676035e-16
4.472955073e-16
4.645618099e-16
4.636889637e-16
4.55747522e-16
4.46619802e-16
4.450880154e-16
4.442626559e-16
4.48482801e-16
4.447445968e-16
4.454422787e-16
4.596698087e-16
4.534589313e-16
4.654362448e-16
4.431848278e-16
4.542460766e-16
4.478069616e-16
4.450956488e-16
4.561808527e-16
4.500951076e-16
4.555823461e-16
4.596672315e-16
4.613657859e-16
4.49685081e-16
4.539600259e-16
4.563717058e-16
4.611590655e-16
4.512826324e-16
4.480262034e-16
4.564922263e-16
4.459740181e-16
4.456147912e-16
4.464284895e-16
4.451259545e-16
4.698981651e-16
4.55814255e-16
4.644609986e-16
4.486092769e-16
4.725030678e-16
4.490688909e-16
4.580869205e-16
4.38989809e-16
4.506062765e-16
4.514663974e-16
4.756369384e-16
4.613913361e-16
4.513599779e-16
4.58824075e-16
4.472979576e-16
4.497920805e-16
4.813726018e-16
4.411659981e-16
4.453961367e-16
4.583002843e-16
4.684846526e-16
4.573957093e-16
4.604231562e-16
4.50290389e-16
4.424733579e-16
4.500383758e-16
4.849068711e-16
4.536917769e-16
4.601736254e-16
4.510841579e-16
4.479101663e-16
4.675703333e-16
4.562458748e-16
4.431485222e-16
4.339032586e-16
4.448583977e-16
4.485048107e-16
4.694044885e-16
4.492403112e-16
4.464433351e-16
4.524694641e-16
4.397145739e-16
4.497107216e-16
4.47757966e-16
4.614816818e-16
4.736397306e-16
4.482356241e-16
4.454500526e-16
4.658192263e-16
4.488475089e-16
4.477881557e-16
4.522301862e-16
4.671890101e-16
4.630352976e-16
4.498304323e-16
4.596596418e-16
4.570014669e-16
4.488534781e-16
4.521273467e-16
4.423539445e-16
4.451682912e-16
4.414829573e-16
4.540871288e-16
4.492888449e-16
4.646300544e-16
4.538492259e-16
4.747399087e-16
4.456777188e-16
4.416777423e-16
4.429229543e-16
4.584795082e-16
4.538869463e-16
4.554942186e-16
4.580117395e-16
4.497936161e-16
4.546737149e-16
4.505471252e-16
4.689448417e-16
4.498488329e-16
4.6564933e-16
4.528533076e-16
4.588755604e-16
4.552353821e-16
4.515152085e-16
4.590541196e-16
4.549888351e-16
4.663415105e-16
4.824943045e-16
4.472904602e-16
4.40704403e-16
4.54575073e-16
4.609782214e-16
4.469055962e-16
4.490850817e-16
4.594420255e-16
4.422049098e-16
4.456468185e-16
4.493879099e-16
4.69964996e-16
4.532190254e-16
4.597984918e-16
4.56711148e-16
4.824778143e-16
4.533625419e-16
4.608440035e-16
4.496370555e-16
4.503791167e-16
4.527280268e-16
4.505214107e-16
4.773193518e-16
4.687422435e-16
4.527705776e-16
4.368485686e-16
4.350789051e-16
4.616641737e-16
4.396532155e-16
4.474610686e-16
4.606710632e-16
4.393404773e-16
4.420995736e-16
4.784846591e-16
4.406209374e-16
4.501622291e-16
4.422011858e-16
4.477685083e-16
4.533922917e-16
4.748009885e-16
4.677123081e-16
4.75942645e-16
4.588930723e-16
4.546887472e-16
4.638964339e-16
4.531875676e-16
4.626092527e-16
4.505289452e-16
4.491601881e-16
4.580689912e-16
4.588884084e-16
4.487369921e-16
4.583740014e-16
4.457991029e-16
4.599778514e-16
4.4409275e-16
4.599140593e-16
4.799662864e-16
4.519871305e-16
4.628524809e-16
4.514766386e-16
4.676341084e-16
4.567073935e-16
4.582536584e-16
4.547106472e-16
4.558674206e-16
4.505476112e-16
4.656216735e-16
4.529824047e-16
4.504647311e-16
4.534841169e-16
4.575505614e-16
4.762011515e-16
4.505302236e-16
4.802103585e-16
4.528525424e-16
4.517392854e-16
4.485270987e-16
4.419762288e-16
4.546835076e-16
4.569586736e-16
4.506266226e-16
4.596054945e-16
4.54304391e-16
4.512184599e-16
4.439018169e-16
4.793468322e-16
4.381100047e-16
4.593778841e-16
4.446386675e-16
4.556171894e-16
4.452713418e-16
4.59322343e-16
4.527732896e-16
4.418665891e-16
4.572413329e-16
4.548139079e-16
4.491414969e-16
4.430169312e-16
4.549590817e-16
4.667574835e-16
4.70664995e-16
4.5552155e-16
4.824705943e-16
4.360300616e-16
4.56084734e-16
4.716474376e-16
4.491457491e-16
4.512681291e-16
4.575024585e-16
4.525755595e-16
4.622299605e-16
4.370057704e-16
4.603579682e-16
4.512005771e-16
4.475705447e-16
4.581266558e-16
4.436655484e-16
4.572533245e-16
4.63734774e-16
4.403547588e-16
4.524271523e-16
4.50937193e-16
4.576086758e-16
4.510576903e-16
4.418846571e-16
4.648313662e-16
4.490019549e-16
4.558911968e-16
4.59231986e-16
4.590015066e-16
4.495637593e-16
4.441639162e-16
4.736152436e-16
4.586418934e-16
4.560659871e-16
4.332365802e-16
4.643505511e-16
4.47609962e-16
4.520213461e-16
4.611165195e-16
4.568111135e-16
4.504515074e-16
4.512594028e-16
4.640168228e-16
4.549451228e-16
4.500513108e-16
4.381108138e-16
4.60583485e-16
4.505144231e-16
4.57594104e-16
4.693031959e-16
4.572906721e-16
4.473633013e-16
4.420931804e-16
4.522648174e-16
4.560372685e-16
4.759285154e-16
4.630630749e-16
4.743729552e-16
4.641468435e-16
4.524864978e-16
4.434114647e-16
4.40529408e-16
4.673502068e-16
4.738152475e-16
4.607148228e-16
4.57256301e-16
4.513297735e-16
4.489448859e-16
4.666380487e-16
4.530954188e-16
4.376537493e-16
4.549285451e-16
4.81574129e-16
4.486335011e-16
4.738467284e-16
4.603084399e-16
4.477461562e-16
4.552680005e-16
4.606364682e-16
4.511843294e-16
4.427365249e-16
4.408131678e-16
4.713131874e-16
4.506944139e-16
4.708807026e-16
4.46607976e-16
4.627038444e-16
4.594670658e-16
4.435150906e-16
4.516953554e-16
4.425194564e-16
4.551042774e-16
4.567827504e-16
4.514235334e-16
4.431200089e-16
4.582744592e-16
4.463589178e-16
4.373180214e-16
4.535603769e-16
4.507184335e-16
4.411254667e-16
4.573730218e-16
4.614470102e-16
4.50181753e-16
4.493938047e-16
4.502970829e-16
4.654630434e-16
4.611901147e-16
4.451220505e-16
4.576622197e-16
4.54818968e-16
4.543877239e-16
4.440637059e-16
4.611572143e-16
4.463809791e-16
4.411515443e-16
4.562413838e-16
4.454975432e-16
4.580092289e-16
4.43887021e-16
4.552851005e-16
4.573989184e-16
4.646940068e-16
4.61026789e-16
4.593992702e-16
4.566981197e-16
4.550280259e-16
4.560835568e-16
4.567051162e-16
4.524578652e-16
4.548173864e-16
4.454029483e-16
4.582892367e-16
4.633167598e-16
4.557341637e-16
4.436069198e-16
4.654113292e-16
4.521534499e-16
4.521895323e-16
4.525599782e-16
4.454680659e-16
4.467816572e-16
4.461207323e-16
4.608976979e-16
4.436294496e-16
4.535007518e-16
4.76904958e-16
4.409140321e-16
4.409189699e-16
4.50746322e-16
4.515263068e-16
4.637190873e-16
4.588235709e-16
4.490954116e-16
4.466009853e-16
4.536290679e-16
4.535294607e-16
4.4868058e-16
4.778630842e-16
4.559364724e-16
4.584836972e-16
4.801935789e-16
4.519430539e-16
4.507528123e-16
4.494631303e-16
4.497314585e-16
4.59799676e-16
4.442270895e-16
4.625717063e-16
4.608263008e-16
4.676645435e-16
4.555941896e-16
4.651419907e-16
4.574240614e-16
4.506609548e-16
4.516092804e-16
4.462932591e-16
4.421818123e-16
4.611418543e-16
4.43353646e-16
4.447973751e-16
4.585708639e-16
4.474537852e-16
4.436786612e-16
4.57789795e-16
4.583500654e-16
4.416253846e-16
4.473786042e-16
4.740587923e-16
4.539428094e-16
4.607200132e-16
4.547266062e-16
4.480716828e-16
4.463811248e-16
4.483776648e-16
4.427342972e-16
4.480174928e-16
4.446029672e-16
4.7195994e-16
4.459017167e-16
4.562956064e-16
4.492544133e-16
4.49350932e-16
4.503943129e-16
4.467000773e-16
4.709648926e-16
4.856350357e-16
4.549572789e-16
4.438945063e-16
4.563715636e-16
4.520583503e-16
4.56206264e-16
4.480850069e-16
4.617431751e-16
4.743208006e-16
4.628161273e-16
4.411265125e-16
4.4949658e-16
4.625664006e-16
4.512254959e-16
4.546503659e-16
4.608897668e-16
4.534577238e-16
4.570184948e-16
4.669278601e-16
4.664466616e-16
4.538697267e-16
4.547848848e-16
4.482132565e-16
4.543307823e-16
4.477400437e-16
4.579313945e-16
4.641551283e-16
4.52074687e-16
4.488764614e-16
4.450172415e-16
4.398750719e-16
4.461655875e-16
4.51107085e-16
4.490904654e-16
4.463591485e-16
4.519181267e-16
4.479586734e-16
4.506394214e-16
4.382417401e-16
4.579008044e-16
4.576862068e-16
4.463132964e-16
4.445416168e-16
4.423492023e-16
4.574892213e-16
4.514456297e-16
4.624535779e-16
4.450703667e-16
4.568947193e-16
4.397667198e-16
4.465896928e-16
4.609351618e-16
4.741997804e-16
4.669160743e-16
4.549777775e-16
4.532585251e-16
4.555620619e-16
4.566082681e-16
4.559866406e-16
4.494750051e-16
4.5910424e-16
4.848738952e-16
4.425300036e-16
4.497700118e-16
4.656278036e-16
4.437742967e-16
4.541034103e-16
4.452958275e-16
4.557249205e-16
4.572579406e-16
4.633296055e-16
4.500794102e-16
4.495318278e-16
4.417417742e-16
4.443697964e-16
4.451389257e-16
4.442148623e-16
4.500709702e-16
4.58393196e-16
4.592895796e-16
4.631546508e-16
4.562700482e-16
4.513185687e-16
4.527298479e-16
4.512241173e-16
4.476341008e-16
4.742328708e-16
4.594303682e-16
4.568053869e-16
4.55651629e-16
4.526698735e-16
4.58822311e-16
4.651498105e-16
4.402722428e-16
4.556952618e-16
4.456551295e-16
4.575019957e-16
4.751254846e-16
4.633471331e-16
4.482091369e-16
4.474273171e-16
4.520229737e-16
4.486402923e-16
4.712651374e-16
4.467605216e-16
4.520849617e-16
4.629904474e-16
4.410731832e-16
4.451160813e-16
4.491875927e-16
4.536817714e-16
4.459475168e-16
4.598264191e-16
4.40643952e-16
4.576356815e-16
4.528210765e-16
4.499702918e-16
4.696590155e-16
4.729051415e-16
4.619079144e-16
4.422763648e-16
4.497177777e-16
4.329340506e-16
4.653509062e-16
4.452786707e-16
4.547643987e-16
4.494545844e-16
4.50027493e-16
4.583456566e-16
4.674099964e-16
4.608779226e-16
4.534148879e-16
4.476764117e-16
4.537441765e-16
4.541237981e-16
4.679129698e-16
4.550460809e-16
4.579731439e-16
4.504529838e-16
4.52890374e-16
4.608748063e-16
4.504175051e-16
4.532005429e-16
4.724056993e-16
4.5103905e-16
4.695861935e-16
4.725775187e-16
4.547708775e-16
4.451692613e-16
4.606999838e-16
4.503908963e-16
4.573374089e-16
4.464994095e-16
4.452057524e-16
4.483203037e-16
4.45253084e-16
4.669253913e-16
4.662862059e-16
4.50148884e-16
4.554650627e-16
4.500140312e-16
4.366399089e-16
4.468169745e-16
4.458238592e-16
4.59943219e-16
4.640817285e-16
4.558981624e-16
4.498616916e-16
4.723541133e-16
4.607118007e-16
4.55595568e-16
4.595410168e-16
4.436457733e-16
4.504677737e-16
4.392202424e-16
4.565385931e-16
4.675491985e-16
4.480963859e-16
4.566310031e-16
4.879748473e-16
4.438431601e-16
4.551435921e-16
4.60293745e-16
4.708446052e-16
4.702088105e-16
4.562513017e-16
4.572831326e-16
4.574581978e-16
4.855268935e-16
4.48830859e-16
4.425846199e-16
4.493370022e-16
4.519037822e-16
4.469380449e-16
4.625364231e-16
4.516547449e-16
4.419070026e-16
4.478640049e-16
4.569518173e-16
4.464110866e-16
4.550154973e-16
4.659134279e-16
4.600057557e-16
4.393873468e-16
4.442399041e-16
4.437315654e-16
4.418609006e-16
4.511426009e-16
4.766142206e-16
4.534751486e-16
4.817021644e-16
4.373793459e-16
4.603857012e-16
4.480239592e-16
4.438052122e-16
4.623353373e-16
4.470870905e-16
4.538679364e-16
4.496132838e-16
4.551618403e-16
4.624768279e-16
4.563179062e-16
4.580483855e-16
4.727174175e-16
4.533405957e-16
4.682185153e-16
4.529357974e-16
4.560574761e-16
4.485282801e-16
4.337282828e-16
4.448035816e-16
4.80787045e-16
4.49206518e-16
4.493030614e-16
4.38832427e-16
4.540448163e-16
4.482059571e-16
4.485191187e-16
4.710844447e-16
4.469276003e-16
4.364383952e-16
4.649637468e-16
4.52850544e-16
4.553663699e-16
4.362160445e-16
4.455817433e-16
4.585828319e-16
4.528493502e-16
4.532338586e-16
4.472458355e-16
4.521227737e-16
4.46655546e-16
4.561003434e-16
4.488413615e-16
4.585861396e-16
4.451941944e-16
4.445142366e-16
4.616309734e-16
4.558112601e-16
4.408118257e-16
4.556829628e-16
4.609962422e-16
4.56628301e-16
4.463367542e-16
4.62152952e-16
4.48545755e-16
4.456055225e-16
4.543335385e-16
4.598081711e-16
4.419203736e-16
4.457593874e-16
4.65087863e-16
4.49474512e-16
4.559898122e-16
4.611995507e-16
4.62459185e-16
4.467099852e-16
4.645356505e-16
4.513975615e-16
4.51789916e-16
4.500655538e-16
4.603947045e-16
4.456995223e-16
4.484004609e-16
4.497601003e-16
4.422381189e-16
4.415095576e-16
4.583478854e-16
4.355829628e-16
4.542413937e-16
4.472355149e-16
4.470288292e-16
4.496254863e-16
4.423543839e-16
4.710586289e-16
4.600669917e-16
4.421733103e-16
4.472656951e-16
4.398326244e-16
4.503554762e-16
4.710414502e-16
4.660297855e-16
4.530285841e-16
4.418717249e-16
4.578277885e-16
4.539724018e-16
4.515634214e-16
4.416819222e-16
4.748046558e-16
4.499231862e-16
4.584271624e-16
4.46366861e-16
4.452542203e-16
4.600395491e-16
4.539730091e-16
4.663930801e-16
4.491206972e-16
4.710579413e-16
4.573212804e-16
4.610199792e-16
4.598979363e-16
4.487342003e-16
4.547610306e-16
4.372005935e-16
4.487907744e-16
4.736824511e-16
4.466571907e-16
4.464715536e-16
4.537012197e-16
4.60837114e-16
4.589308109e-16
4.761452175e-16
4.829424568e-16
4.636794485e-16
4.600092377e-16
4.499775627e-16
4.406337419e-16
4.429996201e-16
4.550745776e-16
4.840626384e-16
4.594982198e-16
4.507096005e-16
4.72354051e-16
4.618249881e-16
4.447360206e-16
4.616520872e-16
4.499363394e-16
4.457238824e-16
4.447173191e-16
4.443291699e-16
4.713884569e-16
4.557991076e-16
4.435922003e-16
4.511082168e-16
4.614002596e-16
4.630904824e-16
4.544719642e-16
4.692246376e-16
4.411130684e-16
4.473698553e-16
4.594284776e-16
4.771927737e-16
4.590312805e-16
4.538704855e-16
4.529175612e-16
4.813240445e-16
4.616701662e-16
4.5185541e-16
4.498137068e-16
4.520662994e-16
4.543784844e-16
4.470520897e-16
4.507652095e-16
4.584106291e-16
4.448177991e-16
4.455839066e-16
4.703990332e-16
4.646887424e-16
4.529263198e-16
4.695028693e-16
4.474330912e-16
4.400521777e-16
4.535302477e-16
4.438688859e-16
4.684254771e-16
4.47622069e-16
4.540151133e-16
4.553017232e-16
4.584385237e-16
4.829814197e-16
4.760637976e-16
4.484171031e-16
4.511481243e-16
4.465027866e-16
4.504889418e-16
4.604511503e-16
4.548054255e-16
4.499649469e-16
4.404331649e-16
4.571144137e-16
4.570969443e-16
4.570651163e-16
4.469924378e-16
4.623603601e-16
4.517857335e-16
4.617310347e-16
4.515994395e-16
4.690213129e-16
4.658941639e-16
4.580978998e-16
4.490392326e-16
4.855882049e-16
4.519558875e-16
4.373949692e-16
4.716222201e-16
4.426794596e-16
4.59586793e-16
4.610627989e-16
4.689541559e-16
4.468470313e-16
4.581893938e-16
4.622168412e-16
4.644040266e-16
4.432715892e-16
4.436925498e-16
4.682484844e-16
4.648857601e-16
4.551819887e-16
4.659622878e-16
4.428336464e-16
4.478854746e-16
4.771282783e-16
4.427222145e-16
4.534611175e-16
4.605436946e-16
4.719352994e-16
4.807812996e-16
4.585267731e-16
4.606522902e-16
4.521419254e-16
4.566665414e-16
4.571116993e-16
4.413749377e-16
4.445480158e-16
4.454421981e-16
4.537244789e-16
4.483063599e-16
4.592869617e-16
4.779764675e-16
4.496155965e-16
4.526086389e-16
4.666890084e-16
4.832183314e-16
4.54716648e-16
4.438439523e-16
4.494968803e-16
4.462445174e-16
4.526213841e-16
4.51397497e-16
4.501039307e-16
4.602912547e-16
4.469380642e-16
4.709138794e-16
4.596168233e-16
4.718851555e-16
4.579422856e-16
4.430830001e-16
4.47232115e-16
4.713971221e-16
4.644077016e-16
4.741079992e-16
4.516461429e-16
4.608316346e-16
4.588370851e-16
4.714415267e-16
4.448575488e-16
4.481279613e-16
4.526357236e-16
4.805672025e-16
4.486556768e-16
4.541982279e-16
4.512279277e-16
4.405552955e-16
4.635117373e-16
4.449215497e-16
4.5442171e-16
4.609481151e-16
4.72871012e-16
4.602005418e-16
4.697923519e-16
4.412748608e-16
4.459686098e-16
4.606300365e-16
4.498172744e-16
4.617661897e-16
4.522806425e-16
4.734821591e-16
4.547116903e-16
4.551325415e-16
4.622091953e-16
4.634249072e-16
4.48688547e-16
4.477709825e-16
4.498117599e-16
4.47263267e-16
4.460863004e-16
4.529661398e-16
4.569546935e-16
4.476968827e-16
4.689992026e-16
4.639179146e-16
4.696864309e-16
4.562458974e-16
4.531111554e-16
4.4323722e-16
4.493753392e-16
4.495997855e-16
4.732345613e-16
4.611546145e-16
4.527410908e-16
4.750953721e-16
4.51345896e-16
4.504204559e-16
4.626679847e-16
4.586649988e-16
4.677937329e-16
4.622071032e-16
4.383403608e-16
4.476192363e-16
4.552492279e-16
4.452273223e-16
4.519410553e-16
4.686121204e-16
4.461828792e-16
4.526305792e-16
4.58289043e-16
4.391123481e-16
4.743010268e-16
4.666699976e-16
4.627400117e-16
4.499243883e-16
4.608277002e-16
4.575020704e-16
4.618137501e-16
4.59756508e-16
4.46942171e-16
4.495627554e-16
4.535249534e-16
4.675030674e-16
4.45174545e-16
4.671666967e-16
4.428846778e-16
4.639980588e-16
4.399259715e-16
4.44455136e-16
4.725529106e-16
4.422038222e-16
4.471732984e-16
4.460817513e-16
4.601352398e-16
4.462596992e-16
4.480002001e-16
4.419784688e-16
4.559732237e-16
4.604399798e-16
4.556267404e-16
4.654003994e-16
4.474600975e-16
4.51369264e-16
4.45231582e-16
4.470884112e-16
4.63502425e-16
4.405908953e-16
4.449096863e-16
4.458084934e-16
4.608281987e-16
4.445674334e-16
4.57254738e-16
4.523331238e-16
4.498541773e-16
4.448471463e-16
4.594043708e-16
4.634285202e-16
4.686527061e-16
4.682646555e-16
4.728772738e-16
4.554272933e-16
4.462997337e-16
4.544627661e-16
4.545674132e-16
4.504269735e-16
4.483519236e-16
4.513010348e-16
4.486769131e-16
4.644369546e-16
4.561944357e-16
4.559196017e-16
4.514671368e-16
4.639381761e-16
4.419146402e-16
4.76680234e-16
4.495507318e-16
4.547631561e-16
4.582972772e-16
4.460389719e-16
4.484537966e-16
4.683373031e-16
4.513521904e-16
4.469601027e-16
4.559717855e-16
4.466528865e-16
4.433845464e-16
4.637702361e-16
4.343530868e-16
4.534074407e-16
4.496784719e-16
4.486534435e-16
4.580527916e-16
4.510047737e-16
4.533561384e-16
4.509414601e-16
4.409340801e-16
4.771759665e-16
4.714466628e-16
4.41209828e-16
4.595084801e-16
4.555850958e-16
4.449751599e-16
4.583560004e-16
4.532199642e-16
4.534851146e-16
4.637775934e-16
4.476619393e-16
4.749910607e-16
4.400020459e-16
4.636345655e-16
4.502329771e-16
4.590333863e-16
4.519245324e-16
4.647823821e-16
4.612438934e-16
4.430682662e-16
4.474191595e-16
4.431866641e-16
4.529235243e-16
4.471592633e-16
4.407943318e-16
4.599976204e-16
4.766853243e-16
4.566250072e-16
4.510732532e-16
4.671245628e-16
4.697827677e-16
4.638411715e-16
4.705878156e-16
4.531720703e-16
4.529288716e-16
4.587628845e-16
4.577051178e-16
4.625276975e-16
4.637173905e-16
4.449853824e-16
4.410726657e-16
4.526990109e-16
4.477756693e-16
4.495567132e-16
4.553924776e-16
4.405949088e-16
4.551438405e-16
4.392433621e-16
4.694402169e-16
4.483458495e-16
4.571295755e-16
4.545260807e-16
4.452759935e-16
4.664606232e-16
4.572025208e-16
4.483492392e-16
4.540887249e-16
4.588783663e-16
4.468505874e-16
4.472018184e-16
4.503907689e-16
4.619544441e-16
4.480109851e-16
4.468450997e-16
4.513421568e-16
4.436506973e-16
4.504147046e-16
4.50473113e-16
4.879764886e-16
4.581973536e-16
4.543213962e-16
4.576715847e-16
4.518979383e-16
4.644762458e-16
4.526788942e-16
4.770965438e-16
4.49728158e-16
4.471786876e-16
4.627646928e-16
4.377455909e-16
4.61258105e-16
4.461371959e-16
4.554183325e-16
4.64230717e-16
4.412474212e-16
4.447792086e-16
4.518881379e-16
4.491447879e-16
4.569723196e-16
4.610052115e-16
4.54262404e-16
4.522394299e-16
4.494088905e-16
4.40664081e-16
4.613222179e-16
4.467409246e-16
4.437156235e-16
4.513833613e-16
4.527210552e-16
4.456631941e-16
4.596264707e-16
4.5718032e-16
4.435669937e-16
4.704798976e-16
4.466994524e-16
4.788878381e-16
4.616162283e-16
4.61454238e-16
4.751624001e-16
4.501951338e-16
4.612214264e-16
4.531637395e-16
4.657920886e-16
4.529474591e-16
4.638990912e-16
4.552158123e-16
4.397938561e-16
4.580183111e-16
4.528018745e-16
4.482031878e-16
4.459099513e-16
4.45120018e-16
4.535467439e-16
4.550395604e-16
4.617704767e-16
4.484834161e-16
4.597757999e-16
4.599804689e-16
4.555985729e-16
4.461473086e-16
4.49443217e-16
4.635354078e-16
4.565134287e-16
4.600214919e-16
4.479774054e-16
4.476965343e-16
4.509880101e-16
4.635336321e-16
4.425087622e-16
4.423455364e-16
4.558228272e-16
4.507993187e-16
4.538523198e-16
4.434637386e-16
4.424249466e-16
4.459015491e-16
4.541721674e-16
4.479184925e-16
4.582415937e-16
4.45137275e-16
4.668124729e-16
4.648640354e-16
4.497363869e-16
4.604218536e-16
4.384392006e-16
4.929138143e-16
4.453230281e-16
4.504770108e-16
4.410478455e-16
4.482100747e-16
4.547239003e-16
4.616980628e-16
4.46926572e-16
4.4806464e-16
4.683900952e-16
4.540155719e-16
4.549724112e-16
4.437003419e-16
4.631987952e-16
4.581105564e-16
4.445785685e-16
4.529871901e-16
4.449453453e-16
4.523063984e-16
4.664067796e-16
4.535367957e-16
4.64797225e-16
4.531089689e-16
4.512346406e-16
4.535458594e-16
4.569212892e-16
4.487981845e-16
4.472446987e-16
4.468601614e-16
4.65652533e-16
4.456042112e-16
4.565937795e-16
4.478830843e-16
4.67705322e-16
4.438103156e-16
4.643954627e-16
4.719865565e-16
4.572298031e-16
4.551715285e-16
4.390031969e-16
4.407867628e-16
4.754444526e-16
4.609661392e-16
4.556007341e-16
4.535069375e-16
4.541029366e-16
4.455146634e-16
4.490061748e-16
4.487393765e-16
4.609439579e-16
4.647875848e-16
4.523840334e-16
4.732628147e-16
4.547513334e-16
4.596315057e-16
4.469444725e-16
4.587754648e-16
4.400929575e-16
4.4968258e-16
4.546269611e-16
4.574042829e-16
4.567007409e-16
4.443227783e-16
4.576926554e-16
4.542759633e-16
4.505801545e-16
4.555528496e-16
4.574974854e-16
4.445664571e-16
4.65511705e-16
4.498428154e-16
4.434168597e-16
4.464307219e-16
4.523092112e-16
4.758682676e-16
4.509554803e-16
4.374278932e-16
4.461499792e-16
4.492183028e-16
4.485432359e-16
4.424473135e-16
4.53642157e-16
4.584788486e-16
4.538248175e-16
4.618571187e-16
4.453262772e-16
4.541066082e-16
4.625352089e-16
4.579874743e-16
4.545758365e-16
4.625202655e-16
4.510211741e-16
4.662790872e-16
4.641174996e-16
4.651397625e-16
4.681914348e-16
4.444758675e-16
4.688460902e-16
4.62586398e-16
4.52759731e-16
4.464548078e-16
4.428915797e-16
4.588889244e-16
4.573929765e-16
4.41178757e-16
4.608240854e-16
4.593082164e-16
4.510497043e-16
4.431115164e-16
4.52698352e-16
4.547508112e-16
4.514200482e-16
4.566844869e-16
4.56238533e-16
4.530175976e-16
4.623726016e-16
4.560666547e-16
4.570524858e-16
4.656278032e-16
4.628452869e-16
4.442545262e-16
4.608173018e-16
4.481104902e-16
4.435121919e-16
4.538189729e-16
4.451771283e-16
4.492532808e-16
4.532801468e-16
4.554210612e-16
4.482140595e-16
4.599401707e-16
4.587106798e-16
4.554109087e-16
4.650733676e-16
4.525593602e-16
4.616840467e-16
4.488609519e-16
4.685335875e-16
4.714852443e-16
4.473198055e-16
4.608391974e-16
4.515667513e-16
4.581861822e-16
4.470332285e-16
4.754301604e-16
4.675942152e-16
4.648833315e-16
4.528947832e-16
4.588153333e-16
4.502353147e-16
4.570416075e-16
4.777475496e-16
4.430529678e-16
4.633556957e-16
4.530151395e-16
4.524105404e-16
4.61752069e-16
4.613097587e-16
4.542446077e-16
4.473823408e-16
4.71110887e-16
4.62036501e-16
4.420712479e-16
4.576442771e-16
4.775379508e-16
4.604567948e-16
4.451628151e-16
4.487288998e-16
4.559841085e-16
4.545791957e-16
4.710064091e-16
4.59751258e-16
4.530337825e-16
4.512231467e-16
4.508781889e-16
4.621029875e-16
4.398025649e-16
4.424075155e-16
4.378780077e-16
4.696895279e-16
4.533625847e-16
4.459717092e-16
4.598668818e-16
4.591108065e-16
4.586918046e-16
4.460362642e-16
4.55633849e-16
4.599381325e-16
4.673707318e-16
4.633853266e-16
4.461753899e-16
4.448264119e-16
4.64021631e-16
4.506189653e-16
4.757958514e-16
4.531084754e-16
4.485103513e-16
4.620262579e-16
4.49417987e-16
4.504593374e-16
4.522778492e-16
4.553780683e-16
4.73936801e-16
4.566946292e-16
4.558289408e-16
4.566033764e-16
4.696559864e-16
4.404891863e-16
4.43361195e-16
4.538212595e-16
4.547051484e-16
4.628461872e-16
4.56322721e-16
4.620568707e-16
4.480159891e-16
4.593679691e-16
4.661458955e-16
4.551778158e-16
4.450659519e-16
4.492459637e-16
4.480760135e-16
4.485047499e-16
4.627244745e-16
4.755823073e-16
4.509903641e-16
4.433807597e-16
4.619988205e-16
4.72263436e-16
4.447004626e-16
4.503989583e-16
4.498487239e-16
4.482628222e-16
4.545228684e-16
4.641293246e-16
4.551473704e-16
4.746180614e-16
4.517343598e-16
4.572484735e-16
4.516979213e-16
4.497109691e-16
4.650645255e-16
4.530851204e-16
4.51603557e-16
4.497529866e-16
4.450155252e-16
4.591093331e-16
4.565845568e-16
4.671564494e-16
4.488340854e-16
4.503283187e-16
4.511553272e-16
4.529086651e-16
4.54948736e-16
4.466337028e-16
4.668266164e-16
4.556237001e-16
4.672625917e-16
4.51499893e-16
4.593240582e-16
4.472925662e-16
4.506952751e-16
4.506737851e-16
4.67987845e-16
4.485886285e-16
4.562078274e-16
4.451198582e-16
4.678381766e-16
4.481913915e-16
4.526761656e-16
4.75133414e-16
4.536707856e-16
4.709887188e-16
4.574797462e-16
4.591366381e-16
4.498495912e-16
4.587456516e-16
4.645223847e-16
4.531420807e-16
4.581461915e-16
4.48010621e-16
4.633992096e-16
4.723325539e-16
4.578357645e-16
4.490800358e-16
4.525006769e-16
4.4608089e-16
4.614007531e-16
4.50769969e-16
4.478647373e-16
4.625224253e-16
4.443764929e-16
4.663362204e-16
4.490713168e-16
4.558026309e-16
4.541505154e-16
4.534167258e-16
4.497403914e-16
4.625293578e-16
4.67961035e-16
4.398932699e-16
4.531923343e-16
4.598357773e-16
4.604958165e-16
4.454618589e-16
4.500095865e-16
4.523744225e-16
4.718240051e-16
4.495402095e-16
4.962070589e-16
4.444091268e-16
4.509319852e-16
4.501692913e-16
4.526557929e-16
4.493100636e-16
4.517462028e-16
4.348561008e-16
4.477441023e-16
4.500809904e-16
4.816689989e-16
4.659462986e-16
4.36693509e-16
4.559811311e-16
4.423996407e-16
4.553399184e-16
4.551638259e-16
4.444857531e-16
4.596744923e-16
4.588427468e-16
4.698221807e-16
4.704914021e-16
4.589210451e-16
4.505605806e-16
4.540086344e-16
4.519565318e-16
4.451097372e-16
4.53791919e-16
4.57196633e-16
4.378030763e-16
4.554916349e-16
4.390932003e-16
4.464995045e-16
4.56336006e-16
4.552507374e-16
4.711420771e-16
4.535627299e-16
4.511217327e-16
4.49319576e-16
4.365084025e-16
4.658644394e-16
4.394264983e-16
4.549273469e-16
4.493914728e-16
4.585323118e-16
4.540632622e-16
4.625728351e-16
4.75201142e-16
4.466554846e-16
4.392966683e-16
4.649023342e-16
4.597603816e-16
4.454318913e-16
4.592867528e-16
4.40219748e-16
4.68713902e-16
4.479211586e-16
4.73820139e-16
4.713049578e-16
4.457529177e-16
4.407224783e-16
4.483555092e-16
4.52079708e-16
4.461431792e-16
4.660533755e-16
4.540543056e-16
4.510022774e-16
4.810610885e-16
4.577664852e-16
4.586815961e-16
4.528899875e-16
4.606846707e-16
4.545453897e-16
4.556759926e-16
4.541350814e-16
4.634173534e-16
4.676329794e-16
4.659223892e-16
4.561802727e-16
4.616131131e-16
4.557551755e-16
4.573474896e-16
4.596426341e-16
4.486861076e-16
4.515729202e-16
4.568082733e-16
4.380219987e-16
4.618601934e-16
4.462630594e-16
4.58808448e-16
4.504327182e-16
4.447490344e-16
4.630674598e-16
4.458474055e-16
4.522328124e-16
4.867108596e-16
4.901252624e-16
4.446882995e-16
4.549876657e-16
4.489974291e-16
4.549777029e-16
4.559577775e-16
4.633805295e-16
4.403760398e-16
4.740482876e-16
4.713268941e-16
4.618206001e-16
4.683630198e-16
4.465683623e-16
4.609235036e-16
4.83445789e-16
4.530603404e-16
4.557976979e-16
4.465633082e-16
4.466598561e-16
4.85423455e-16
4.479180153e-16
4.61121651e-16
4.532879896e-16
4.512595336e-16
4.439295857e-16
4.540600718e-16
4.59582188e-16
4.627503663e-16
4.493682039e-16
4.546540536e-16
4.546499922e-16
4.6183037e-16
4.387791031e-16
4.353712956e-16
4.572578877e-16
4.598912349e-16
4.756704562e-16
4.580270873e-16
4.716269709e-16
4.514513764e-16
4.804100923e-16
4.518049882e-16
4.390360864e-16
4.428532686e-16
4.37068464e-16
4.632830497e-16
4.512333356e-16
4.436061126e-16
4.534807252e-16
4.550451969e-16
4.575616502e-16
4.562388599e-16
4.557517515e-16
4.431372754e-16
4.455858701e-16
4.663747907e-16
4.40449284e-16
4.58030535e-16
4.403245203e-16
4.454159785e-16
4.492465079e-16
4.5183662e-16
4.52571258e-16
4.524269475e-16
4.556835204e-16
4.408285266e-16
4.377953289e-16
4.481437141e-16
4.477658135e-16
4.54211333e-16
4.612062112e-16
4.426347091e-16