/*--------------------------------*- C++ -*----------------------------------*\
  =========                 |
  \\      /  F ield         | OpenFOAM: The Open Source CFD Toolbox
   \\    /   O peration     | Website:  https://openfoam.org
    \\  /    A nd           | Version:  6
     \\/     M anipulation  |
\*---------------------------------------------------------------------------*/
FoamFile
{
    version     2.0;
    format      ascii;
    class       volVectorField;
    location    "20.5";
    object      fD;
}
// * * * * * * * * * * * * * * * * * * * * * * * * * * * * * * * * * * * * * //

dimensions      [1 -1 -2 0 0 0 0];

internalField   uniform (0 0 0);

boundaryField
{
    FLOW
    {
        type            calculated;
        value           nonuniform List<vector> 
60
(
(-2.366806416e-06 2.811753129e-05 -6.694530744e-07)
(-2.900792432e-06 2.866647162e-05 -1.538336558e-06)
(-1.178763558e-06 2.791735934e-05 1.310059635e-06)
(-2.114652455e-06 2.774669965e-05 5.848522773e-07)
(-3.523476784e-06 2.721026478e-05 6.690967879e-08)
(-3.803030987e-06 2.724744559e-05 -5.483839272e-08)
(-3.039740036e-06 3.137723214e-05 -1.538646963e-06)
(-3.269527254e-06 3.036811582e-05 4.080594366e-07)
(-2.872152548e-06 2.798491979e-05 4.807113735e-07)
(-3.859369856e-06 2.979879624e-05 1.66426813e-06)
(-1.601360448e-06 2.896582197e-05 2.199338554e-07)
(-1.827910905e-06 2.789271371e-05 6.239128206e-07)
(-3.39660543e-06 2.836053673e-05 -5.012154127e-07)
(-3.415695411e-06 3.218308284e-05 1.012209869e-06)
(-3.98696802e-06 2.814286738e-05 -8.818799394e-07)
(-2.496111733e-06 2.843893223e-05 4.038009023e-07)
(-2.410160475e-06 2.974132058e-05 2.932303952e-07)
(-3.480141529e-06 2.78419363e-05 -2.877065025e-07)
(-1.77403706e-06 2.899852686e-05 9.6519692e-08)
(-2.768312605e-06 2.828139973e-05 -8.286729807e-07)
(-4.401763359e-06 2.859143272e-05 2.980715227e-07)
(-3.303972737e-06 2.964239274e-05 1.831550688e-06)
(-3.979255392e-06 3.170253901e-05 8.810310095e-07)
(-1.715161075e-06 2.806629424e-05 1.870904569e-06)
(-2.461923717e-06 3.164406213e-05 1.408758392e-06)
(-2.181309212e-06 2.827718043e-05 1.251043043e-06)
(-3.246649786e-06 3.047456156e-05 -3.157907143e-08)
(-3.743129356e-06 2.757494208e-05 -9.261312047e-07)
(-3.343836309e-06 2.932346352e-05 7.711764187e-07)
(-2.731283238e-06 2.875168174e-05 -5.62272396e-08)
(-4.017178369e-06 2.849129185e-05 -1.542154509e-06)
(-3.261372522e-06 2.920376564e-05 4.103561128e-07)
(-3.021517936e-06 2.935541313e-05 -5.063991e-07)
(-3.54553549e-06 2.627083011e-05 -1.243375327e-06)
(-2.153139298e-06 2.827097292e-05 -1.265661986e-06)
(-2.81791221e-06 2.938151582e-05 -4.386645691e-07)
(-3.51724637e-06 2.806522188e-05 -1.138919131e-06)
(-3.649499377e-06 2.82646792e-05 -4.494884329e-07)
(-2.817162919e-06 2.939994309e-05 5.753685018e-07)
(-2.550704554e-06 2.769060762e-05 4.160560097e-07)
(-3.36985185e-06 2.872485522e-05 4.952575002e-07)
(-2.167910385e-06 2.950925919e-05 -8.738240552e-07)
(-3.301428275e-06 2.897528383e-05 -9.090297592e-07)
(-3.701196626e-06 2.828388291e-05 2.87921593e-07)
(-1.795913276e-06 2.884778248e-05 -2.599957974e-07)
(-2.970301408e-06 2.881840742e-05 -1.889075209e-07)
(-2.911461799e-06 2.958486961e-05 -3.432315576e-07)
(-4.4777501e-06 3.235400216e-05 -2.035797406e-07)
(-3.269607666e-06 2.862048961e-05 -8.702206025e-07)
(-3.355392179e-06 2.915828557e-05 9.296447822e-08)
(-4.373801243e-06 3.350388035e-05 1.234101077e-06)
(-2.36032357e-06 2.908746282e-05 4.773670274e-07)
(-2.76493277e-06 2.869511638e-05 -7.427717751e-07)
(-2.910379207e-06 2.86939186e-05 2.102615512e-06)
(-4.575102124e-06 3.121128233e-05 1.771937869e-06)
(-2.88572885e-06 3.250507884e-05 -1.78875303e-06)
(-2.751118763e-06 3.117977239e-05 1.165212545e-06)
(-3.161412478e-06 3.246528222e-05 -2.912861668e-07)
(-2.140244517e-06 3.193586445e-05 -1.217792205e-06)
(-3.410630468e-06 3.389452925e-05 7.664164055e-07)
)
;
    }
    WALL
    {
        type            calculated;
        value           nonuniform List<vector> 
180
(
(-2.613409651e-05 6.253519054e-08 5.619226749e-07)
(-3.061432278e-05 1.526562612e-06 -1.615818507e-06)
(-2.837270994e-05 -3.928402783e-07 1.85863334e-06)
(-2.713487108e-05 6.745653997e-07 -2.851650621e-07)
(-2.889192597e-05 2.276150235e-06 4.313096112e-07)
(-2.910247032e-05 4.55719577e-07 -2.241744817e-07)
(-2.69369352e-05 8.746479403e-07 -2.977633793e-07)
(-2.839563675e-05 7.551405065e-07 -7.383104397e-07)
(-3.099963874e-05 1.632269173e-07 1.925822681e-07)
(-2.896357676e-05 1.59575583e-06 -3.906062755e-07)
(-2.803222429e-05 1.198008681e-06 5.698188283e-07)
(-2.740506419e-05 7.958290639e-07 -4.644307673e-07)
(-2.759770332e-05 2.248689514e-06 -1.125776794e-06)
(-2.781454565e-05 -7.310888749e-09 -3.101625007e-07)
(-2.654386966e-05 4.508536478e-07 -5.721616042e-07)
(-2.590661124e-05 1.417419453e-06 -2.035061331e-07)
(-2.949842018e-05 2.99767283e-06 -6.353373734e-07)
(-2.930106535e-05 -4.395197336e-07 -1.031867882e-06)
(-2.823077923e-05 2.547304978e-06 1.280294874e-06)
(-2.64717536e-05 1.449327582e-06 1.091289912e-07)
(-2.732570801e-05 2.172942404e-06 -6.243437948e-07)
(-2.773722679e-05 1.220612793e-06 -1.5126391e-06)
(-2.764323199e-05 3.280408154e-06 -2.007113067e-06)
(-2.603381335e-05 -1.927334356e-07 7.371773395e-07)
(-2.594640032e-05 9.719710696e-07 -1.350271709e-06)
(-2.756375669e-05 -1.642552219e-07 7.162575164e-07)
(-2.598880912e-05 -2.693663503e-07 -3.712802331e-07)
(-2.657641377e-05 3.57483521e-07 -7.87027771e-07)
(-2.643216799e-05 3.152671283e-06 1.999250838e-06)
(-2.546107535e-05 1.257681238e-06 -1.735931e-07)
(-3.121995227e-05 -8.220469469e-07 -6.850943081e-07)
(-2.624877163e-05 -8.172442384e-07 1.20912918e-06)
(-2.5540083e-05 5.115666729e-07 -3.852609525e-07)
(-2.884520838e-05 1.574095958e-06 -9.383596693e-07)
(-3.38663562e-05 -2.496580581e-07 -2.045774289e-07)
(-2.752154141e-05 4.644362431e-07 1.492741616e-07)
(-2.979936057e-05 1.260579568e-06 1.019184404e-06)
(-3.098886566e-05 1.216416366e-06 1.676090665e-06)
(-2.903612102e-05 4.991053974e-07 -8.821909199e-08)
(-2.604000015e-05 -2.353341646e-07 1.373164391e-06)
(-2.687648646e-05 -4.182891824e-07 1.508787945e-07)
(-2.945731736e-05 2.149339135e-06 5.043342823e-07)
(-2.979111212e-05 1.327454771e-06 5.100822026e-07)
(-2.863373738e-05 2.124109149e-06 -1.41863675e-06)
(-2.720265639e-05 -9.563351985e-08 -1.156470437e-06)
(-2.94288689e-05 8.40652511e-07 -7.959809089e-07)
(-2.743004905e-05 1.320803607e-06 -5.801561811e-07)
(-2.824476236e-05 8.943993061e-07 -9.225739377e-08)
(-2.753406637e-05 5.991363754e-07 9.722132437e-07)
(-2.850414808e-05 8.209975132e-07 -7.984298907e-07)
(-2.810445331e-05 -1.349469006e-06 3.418186305e-07)
(-2.674467423e-05 -2.402064995e-07 4.531284888e-07)
(-2.816043047e-05 1.411983988e-06 -1.506890648e-07)
(-3.424570646e-05 -6.997591803e-09 -1.44710087e-06)
(-2.58011505e-05 -2.256928703e-07 4.549498734e-07)
(-2.885534005e-05 1.165512087e-06 1.919097522e-06)
(-2.720220097e-05 -1.543507917e-07 -2.148664961e-07)
(-2.697097035e-05 1.134195723e-06 6.051818732e-07)
(-3.033813678e-05 1.119522307e-07 1.311585472e-07)
(-2.80985273e-05 1.532608204e-06 1.431614975e-07)
(-1.548349371e-07 -2.530179853e-05 -1.282730702e-06)
(-9.680261592e-07 -2.678333743e-05 9.709906844e-07)
(1.680952502e-06 -2.756343167e-05 9.534388282e-07)
(-1.760843538e-06 -2.729338004e-05 -2.602821605e-07)
(-2.498143296e-07 -2.749559225e-05 5.212920433e-07)
(-8.165787505e-07 -3.135829691e-05 2.03579277e-06)
(-2.602599475e-07 -2.682325696e-05 -1.262424973e-06)
(-3.511718204e-07 -2.868518232e-05 -7.071353637e-07)
(-1.237839704e-06 -2.798880812e-05 -2.977919255e-07)
(-3.283188445e-08 -2.762580414e-05 7.184856033e-07)
(4.522738783e-07 -2.956899772e-05 -2.055379418e-07)
(4.328501181e-07 -2.768274013e-05 4.558956085e-07)
(-5.304460991e-07 -2.752173588e-05 3.868114125e-07)
(-2.526290962e-07 -2.782347374e-05 -1.403827047e-06)
(6.038326824e-09 -2.578304295e-05 -3.214842879e-07)
(-4.981865083e-07 -2.696305378e-05 1.658177393e-06)
(-2.149892952e-07 -2.937763707e-05 7.653763068e-08)
(1.717335826e-06 -2.84306095e-05 7.870895863e-07)
(3.741730843e-07 -2.595292649e-05 -2.555634284e-08)
(-3.807091676e-08 -2.941391571e-05 1.409051961e-07)
(1.172010513e-06 -2.863417432e-05 -2.193801998e-06)
(-8.764089441e-07 -2.661246463e-05 5.338070511e-07)
(-1.224307216e-06 -2.75015543e-05 -9.575480623e-07)
(-5.878464651e-07 -2.435379153e-05 5.003706695e-07)
(-1.143502244e-06 -2.850904934e-05 -1.219184203e-06)
(-2.367486143e-07 -3.128140451e-05 2.953611417e-07)
(-6.297861492e-07 -2.893577828e-05 7.251557921e-08)
(-2.480167433e-07 -3.259519514e-05 4.520906455e-07)
(5.709625419e-07 -2.869321654e-05 -1.990554346e-06)
(1.496831593e-07 -2.831713963e-05 1.166327485e-06)
(-2.034749176e-06 -2.783255547e-05 -1.110474594e-06)
(-5.145168291e-07 -2.728190503e-05 -2.119056907e-06)
(3.231126425e-07 -2.922339061e-05 -7.77054278e-07)
(-7.805809063e-07 -2.942001517e-05 -1.881249305e-07)
(-1.990249159e-07 -2.867412047e-05 9.050188128e-07)
(-3.393013305e-07 -2.887342803e-05 -8.170409227e-07)
(-8.635341524e-07 -2.935567594e-05 -1.03545645e-06)
(7.269464597e-07 -3.156010988e-05 7.689547066e-07)
(-1.612316757e-06 -3.018884637e-05 2.494143138e-08)
(-1.66620213e-07 -3.110002181e-05 -2.568991751e-07)
(-1.146310755e-06 -3.056686739e-05 2.089827544e-07)
(-1.724025043e-06 -3.188422409e-05 -3.075556176e-07)
(-2.193055773e-07 -3.110432619e-05 6.560655836e-07)
(-3.295681826e-07 -2.942702261e-05 -1.517620821e-06)
(-7.200677311e-07 -2.962416238e-05 1.267373673e-07)
(8.842968247e-07 -3.32847161e-05 -3.202203719e-07)
(-1.229837541e-06 -3.027926886e-05 -1.615502078e-06)
(-3.381490424e-07 -3.066211765e-05 -1.44385453e-06)
(-1.919390107e-07 -3.02376088e-05 5.44463259e-07)
(-4.615650268e-07 -3.309913434e-05 9.008630357e-07)
(-1.933348724e-07 -3.096108565e-05 -9.613904815e-08)
(1.539077863e-06 -3.151701532e-05 1.452949931e-06)
(-1.747127341e-10 -3.120947351e-05 9.726434807e-07)
(-6.252432845e-07 -3.230490934e-05 -5.260597393e-07)
(-1.779587801e-07 -2.775502111e-05 4.091100163e-07)
(5.013669905e-07 -3.212154227e-05 -4.552998519e-07)
(-1.325456036e-06 -2.851990465e-05 -1.099782808e-07)
(-6.110283564e-07 -3.140571391e-05 1.465564727e-06)
(-5.775220839e-07 -2.793261193e-05 9.438258905e-07)
(1.11077314e-07 -3.196125229e-05 7.392409029e-09)
(3.090924997e-05 4.313613404e-07 1.297406611e-06)
(3.068459536e-05 -2.17525423e-06 2.969601331e-07)
(2.839391715e-05 -6.429912194e-07 -9.778304444e-07)
(3.044608843e-05 5.247905295e-07 -1.628401586e-06)
(3.042923928e-05 -8.554538842e-07 6.471052106e-07)
(3.127677662e-05 -1.222169068e-06 -1.150110786e-07)
(2.930356092e-05 -1.528656539e-06 -1.757471733e-07)
(3.282036937e-05 -2.108478978e-06 -5.202206589e-07)
(3.126574812e-05 -1.094510845e-07 -2.873122896e-07)
(3.048694304e-05 -1.40311783e-07 -3.672427907e-07)
(3.15961011e-05 2.051175113e-07 1.446683775e-06)
(3.280355482e-05 -1.097119124e-06 2.804787165e-07)
(3.329259978e-05 -2.081340694e-06 -5.393974804e-07)
(2.984820338e-05 -1.150660546e-06 -9.079848272e-07)
(2.97281772e-05 5.423023966e-08 -2.087274546e-06)
(3.02187159e-05 -1.960674752e-06 -1.63893293e-06)
(2.813387901e-05 -2.208099953e-06 5.564804939e-07)
(2.997309793e-05 -2.353451973e-07 -3.760772091e-07)
(2.915164588e-05 1.607957801e-07 -7.3425248e-07)
(3.009734776e-05 -2.308190499e-06 -1.277972322e-06)
(3.110279344e-05 -1.475284357e-06 -3.89590845e-07)
(3.119783043e-05 -1.477266547e-06 2.140958896e-07)
(3.002554983e-05 -1.232741801e-06 -2.478541243e-07)
(3.187180036e-05 -5.269513045e-07 -1.315342504e-06)
(3.214056478e-05 -3.086192538e-07 8.53799671e-07)
(2.862034454e-05 -1.885834244e-06 4.433829872e-07)
(2.732259453e-05 1.099918811e-07 -1.276008386e-06)
(3.268048904e-05 -7.077324103e-07 -2.969387908e-07)
(2.79603139e-05 -1.391807804e-06 1.693785706e-06)
(3.188216492e-05 -1.317057186e-06 -6.435323839e-07)
(3.026040186e-05 -4.927304724e-08 -2.182044736e-06)
(3.173525319e-05 -2.267559333e-07 1.292056924e-06)
(3.22763498e-05 -5.044910889e-07 9.081772866e-07)
(3.114865747e-05 -6.761231554e-07 5.115935558e-07)
(2.988668723e-05 -1.302572009e-06 -9.993993303e-08)
(3.345013599e-05 -2.215522303e-06 5.619581637e-07)
(3.068372702e-05 -6.233995808e-07 3.086475042e-08)
(3.168908381e-05 -1.127804397e-06 5.535801876e-07)
(2.87681177e-05 -1.273859195e-07 -6.538557906e-08)
(3.093176293e-05 -1.512391681e-06 -3.564358238e-07)
(3.149646456e-05 -2.84341279e-06 -5.67459727e-07)
(3.132205286e-05 -9.205313928e-07 -1.875812034e-06)
(3.193769792e-05 -6.877972769e-07 -1.014264799e-06)
(3.311576056e-05 -2.004779402e-06 -1.146161665e-06)
(3.503073577e-05 -3.003842985e-06 -1.651356887e-07)
(3.246134691e-05 -2.637128557e-06 1.551035772e-06)
(3.070963253e-05 -2.755904061e-06 -6.012284474e-07)
(2.893267179e-05 -9.198884595e-07 1.707921733e-08)
(3.435841083e-05 -9.810806566e-07 -1.436685903e-06)
(3.40441748e-05 -2.138915847e-06 -2.922914011e-07)
(3.279913896e-05 -8.324438041e-07 -1.365922628e-06)
(3.218517069e-05 -1.337066104e-06 4.312202979e-07)
(3.437689411e-05 -1.274404158e-06 -4.091614305e-07)
(3.140229866e-05 -1.875178941e-06 -1.489082774e-06)
(3.043648634e-05 -2.175707393e-06 -3.06179335e-08)
(3.243140416e-05 -7.931757663e-07 1.234036301e-06)
(3.09990688e-05 -2.300752163e-06 6.629173396e-07)
(3.440808326e-05 -1.558054285e-06 -1.158288903e-06)
(3.263978498e-05 -1.96597769e-06 -1.395440376e-06)
(3.433358449e-05 -2.498008528e-06 -7.556325003e-07)
)
;
    }
    frontAndBack
    {
        type            empty;
    }
}


// ************************************************************************* //
