/*--------------------------------*- C++ -*----------------------------------*\
  =========                 |
  \\      /  F ield         | OpenFOAM: The Open Source CFD Toolbox
   \\    /   O peration     | Website:  https://openfoam.org
    \\  /    A nd           | Version:  6
     \\/     M anipulation  |
\*---------------------------------------------------------------------------*/
FoamFile
{
    version     2.0;
    format      ascii;
    class       volVectorField;
    location    "20.5";
    object      fDMean;
}
// * * * * * * * * * * * * * * * * * * * * * * * * * * * * * * * * * * * * * //

dimensions      [1 -1 -2 0 0 0 0];

internalField   uniform (0 0 0);

boundaryField
{
    FLOW
    {
        type            calculated;
        value           nonuniform List<vector> 
60
(
(-2.955653163e-06 2.773422808e-05 1.422493496e-10)
(-2.937973911e-06 2.794939602e-05 3.30690888e-10)
(-2.930906258e-06 2.808679605e-05 1.719788775e-09)
(-2.921451155e-06 2.819991591e-05 -8.03087468e-10)
(-2.911275902e-06 2.828442822e-05 1.549323278e-09)
(-2.906825581e-06 2.835659856e-05 -2.392707737e-09)
(-2.899368324e-06 2.843690438e-05 -3.299714169e-10)
(-2.89383019e-06 2.848796823e-05 -1.604691179e-09)
(-2.884563001e-06 2.854408903e-05 -2.499788489e-10)
(-2.880160069e-06 2.859125733e-05 1.664238446e-09)
(-2.882580046e-06 2.865271502e-05 1.755203523e-09)
(-2.877105693e-06 2.869288774e-05 -5.387930497e-10)
(-2.880147924e-06 2.872728135e-05 -2.159571341e-09)
(-2.875407495e-06 2.877601346e-05 -2.887239839e-10)
(-2.87451947e-06 2.881915519e-05 2.61747557e-09)
(-2.877871032e-06 2.885229642e-05 8.392266808e-10)
(-2.879257018e-06 2.889211511e-05 1.834205779e-09)
(-2.872565187e-06 2.892234768e-05 -1.444509435e-09)
(-2.873554152e-06 2.895691581e-05 -1.189064804e-10)
(-2.876164222e-06 2.898300459e-05 2.807747216e-09)
(-2.879967668e-06 2.901960998e-05 8.750825432e-10)
(-2.87872024e-06 2.905998978e-05 2.293871028e-09)
(-2.880667244e-06 2.90876275e-05 -8.589329644e-11)
(-2.882526272e-06 2.910536054e-05 1.75348006e-09)
(-2.888079607e-06 2.914755601e-05 -1.027939686e-09)
(-2.891704663e-06 2.917837073e-05 -2.339835475e-09)
(-2.892682147e-06 2.92012182e-05 7.830438852e-10)
(-2.895360179e-06 2.922757002e-05 -5.382530434e-10)
(-2.902895216e-06 2.925769028e-05 1.368304667e-09)
(-2.903822459e-06 2.928365645e-05 -8.226655922e-10)
(-2.906385076e-06 2.932373784e-05 -2.87968186e-10)
(-2.912044188e-06 2.934598364e-05 1.053781087e-10)
(-2.918392412e-06 2.938557533e-05 -2.708430907e-09)
(-2.927126859e-06 2.940801432e-05 -3.228444734e-09)
(-2.934095004e-06 2.944305228e-05 1.587717664e-09)
(-2.934086268e-06 2.947167288e-05 7.979218264e-10)
(-2.940012308e-06 2.950529088e-05 3.058406209e-09)
(-2.94775192e-06 2.954210953e-05 1.827583978e-10)
(-2.960845505e-06 2.957311586e-05 3.178630366e-09)
(-2.96882043e-06 2.961067196e-05 5.206273087e-09)
(-2.981025268e-06 2.964902394e-05 -3.07866327e-09)
(-2.984023666e-06 2.969314668e-05 -3.967884875e-09)
(-2.995750774e-06 2.972312437e-05 1.074128235e-09)
(-3.005719345e-06 2.976047841e-05 3.03392076e-09)
(-3.020464922e-06 2.981112677e-05 -3.067160465e-10)
(-3.030639733e-06 2.985854786e-05 4.026745677e-09)
(-3.04234084e-06 2.990604888e-05 6.619069281e-09)
(-3.061779622e-06 2.995643227e-05 1.697117446e-09)
(-3.076697708e-06 3.001174698e-05 5.47839324e-10)
(-3.094917205e-06 3.00666076e-05 1.459334124e-09)
(-3.106089517e-06 3.013181808e-05 8.996644937e-10)
(-3.129964896e-06 3.019492068e-05 -5.247190005e-09)
(-3.158965671e-06 3.027366097e-05 1.627093841e-09)
(-3.184998746e-06 3.036162214e-05 -4.803508884e-09)
(-3.210560271e-06 3.045496254e-05 1.339174142e-09)
(-3.245130166e-06 3.056917395e-05 -1.918694892e-09)
(-3.2772798e-06 3.069924419e-05 -1.422330628e-09)
(-3.323620809e-06 3.085143974e-05 -4.033194887e-09)
(-3.385017369e-06 3.10584551e-05 -6.532349801e-10)
(-3.475457138e-06 3.139644638e-05 2.246852599e-09)
)
;
    }
    WALL
    {
        type            calculated;
        value           nonuniform List<vector> 
180
(
(-2.842770368e-05 7.358903038e-07 1.563572362e-09)
(-2.837212812e-05 7.625929653e-07 -2.360373037e-09)
(-2.831928696e-05 7.884983615e-07 -8.06878055e-10)
(-2.827216738e-05 8.117373203e-07 4.127948877e-09)
(-2.821704471e-05 8.356422873e-07 -1.519564495e-09)
(-2.815063297e-05 8.641275748e-07 -1.917190009e-09)
(-2.809691061e-05 8.846871426e-07 -5.383880396e-09)
(-2.803462955e-05 9.148299949e-07 -2.850911945e-09)
(-2.796751064e-05 9.402005694e-07 1.487877777e-09)
(-2.790137953e-05 9.658682742e-07 2.766806875e-09)
(-2.782274007e-05 9.902336048e-07 5.389550385e-09)
(-2.775453199e-05 1.012885511e-06 -1.079721235e-10)
(-2.767016901e-05 1.031744468e-06 1.103506796e-09)
(-2.759455653e-05 1.065043715e-06 -6.366361052e-09)
(-2.750010401e-05 1.080209555e-06 -3.583418936e-09)
(-2.74152882e-05 1.108405364e-06 -2.199759324e-09)
(-2.732812838e-05 1.128665763e-06 5.723936607e-09)
(-2.723280128e-05 1.150389639e-06 -2.403848854e-09)
(-2.714139383e-05 1.172666887e-06 -3.660872765e-09)
(-2.704324922e-05 1.196620667e-06 1.790059014e-09)
(-2.694852783e-05 1.216620273e-06 -6.153461788e-10)
(-2.683479468e-05 1.237554266e-06 2.12113982e-09)
(-2.673852881e-05 1.261494345e-06 -6.70158882e-11)
(-2.66130849e-05 1.276911627e-06 3.171747861e-10)
(-2.650059048e-05 1.296534381e-06 -2.753003284e-09)
(-2.638182812e-05 1.317239656e-06 3.696299441e-09)
(-2.623872207e-05 1.332082018e-06 3.044985039e-09)
(-2.610130274e-05 1.352907613e-06 -1.087643383e-09)
(-2.59418087e-05 1.379109322e-06 -7.220417594e-10)
(-2.574195788e-05 1.413865211e-06 -1.874956026e-09)
(-2.847874053e-05 3.48834499e-08 1.749370248e-09)
(-2.855247282e-05 5.750076743e-08 -1.194822251e-09)
(-2.860438945e-05 7.815666609e-08 8.380664686e-10)
(-2.865545012e-05 9.956026198e-08 1.051173672e-09)
(-2.868599847e-05 1.183780035e-07 2.398965766e-09)
(-2.872074292e-05 1.395449837e-07 2.29840465e-09)
(-2.874974354e-05 1.593250936e-07 -6.611635482e-09)
(-2.877689902e-05 1.856849994e-07 -2.658081828e-09)
(-2.87928632e-05 1.995071183e-07 -2.130141789e-09)
(-2.879020924e-05 2.28861578e-07 8.46797876e-10)
(-2.880629915e-05 2.484603335e-07 -2.541966591e-09)
(-2.881239383e-05 2.715208636e-07 -1.035216775e-09)
(-2.882172982e-05 2.904723772e-07 1.488090525e-09)
(-2.882634738e-05 3.167579696e-07 -1.380445409e-09)
(-2.881316207e-05 3.40313224e-07 5.309933204e-09)
(-2.881093923e-05 3.618364226e-07 1.084396669e-09)
(-2.880617106e-05 3.873681205e-07 2.271367244e-09)
(-2.879047523e-05 4.093287096e-07 1.43045275e-09)
(-2.878153638e-05 4.315751427e-07 3.023262831e-09)
(-2.876221021e-05 4.612212336e-07 6.636759497e-10)
(-2.875166181e-05 4.855659502e-07 1.742039264e-09)
(-2.872705817e-05 5.060565897e-07 -2.846855627e-09)
(-2.869796433e-05 5.336807872e-07 2.437564276e-09)
(-2.868797174e-05 5.61402574e-07 1.155660494e-09)
(-2.865096942e-05 5.799812133e-07 3.053675489e-09)
(-2.860665433e-05 6.096148581e-07 -4.979318128e-09)
(-2.858044148e-05 6.333482562e-07 -2.671239001e-09)
(-2.854347084e-05 6.573608216e-07 -2.233839444e-10)
(-2.850819036e-05 6.852468016e-07 9.907139463e-10)
(-2.846614032e-05 7.108018898e-07 -1.519269457e-09)
(1.184012907e-07 -2.754740195e-05 1.839998123e-09)
(1.126304475e-07 -2.761259104e-05 5.431019806e-09)
(1.097061885e-07 -2.764897213e-05 -4.339439471e-09)
(1.002535793e-07 -2.768174733e-05 1.38712968e-09)
(8.962146241e-08 -2.77273359e-05 1.140568449e-09)
(8.279240469e-08 -2.77443205e-05 -4.119484549e-09)
(6.808224656e-08 -2.777545958e-05 -4.055217645e-09)
(5.233697268e-08 -2.781001208e-05 -7.526874256e-11)
(4.512226911e-08 -2.78494934e-05 1.304461488e-09)
(2.954877703e-08 -2.788040587e-05 5.635389912e-10)
(1.399888323e-08 -2.792816248e-05 -4.36828855e-09)
(-1.362038396e-09 -2.797411117e-05 4.851440327e-09)
(-1.183179111e-08 -2.80202892e-05 -4.556749908e-09)
(-2.693464303e-08 -2.806043571e-05 -1.096601621e-09)
(-3.832990674e-08 -2.812683719e-05 3.307052281e-10)
(-4.149852769e-08 -2.817542816e-05 -7.302210594e-09)
(-6.118023755e-08 -2.823119952e-05 -2.798563805e-09)
(-7.164309047e-08 -2.827828174e-05 -3.878150451e-09)
(-7.746100397e-08 -2.834061383e-05 1.750468454e-10)
(-8.646658226e-08 -2.840996388e-05 -1.458155902e-09)
(-1.004888131e-07 -2.847186461e-05 -4.466313738e-09)
(-1.05158258e-07 -2.854102411e-05 7.315965774e-09)
(-1.138536762e-07 -2.859654559e-05 1.751222108e-09)
(-1.223293752e-07 -2.867282736e-05 -2.199738132e-10)
(-1.276530266e-07 -2.873813304e-05 4.590184736e-09)
(-1.33026446e-07 -2.881279318e-05 1.471983047e-09)
(-1.350401728e-07 -2.888482326e-05 -1.015389488e-09)
(-1.413340969e-07 -2.895184007e-05 -2.138719416e-09)
(-1.413439052e-07 -2.902778882e-05 -1.128517149e-09)
(-1.427675296e-07 -2.910447479e-05 1.128864465e-09)
(-1.428409829e-07 -2.91902418e-05 -2.067223339e-09)
(-1.439101986e-07 -2.925383276e-05 -2.625840478e-09)
(-1.407696683e-07 -2.933642848e-05 7.193918586e-10)
(-1.34084216e-07 -2.940800702e-05 -2.35573251e-09)
(-1.290528971e-07 -2.94785324e-05 6.313230493e-09)
(-1.302450595e-07 -2.954470112e-05 2.601968878e-10)
(-1.307378548e-07 -2.962648209e-05 -5.771995463e-10)
(-1.165554353e-07 -2.969341584e-05 -1.258712688e-11)
(-1.095669695e-07 -2.976697102e-05 7.982563374e-10)
(-9.88369925e-08 -2.983837688e-05 -1.789397474e-09)
(-9.32225196e-08 -2.991109927e-05 1.328477466e-09)
(-8.00461347e-08 -2.997276573e-05 1.863468004e-09)
(-6.820742724e-08 -3.004296933e-05 4.899166433e-09)
(-6.013539913e-08 -3.010588947e-05 2.434234532e-09)
(-4.23234773e-08 -3.017684893e-05 -2.632441291e-09)
(-3.66615042e-08 -3.021893373e-05 1.545596432e-09)
(-2.157433675e-08 -3.029587386e-05 1.577617416e-09)
(-1.027553054e-08 -3.035296329e-05 -2.222968353e-09)
(9.299992953e-09 -3.040344597e-05 -3.420223128e-09)
(2.876645909e-08 -3.045269571e-05 2.889741714e-09)
(4.148442527e-08 -3.051052221e-05 -3.818378142e-09)
(4.786055898e-08 -3.056383968e-05 -4.069597499e-09)
(6.477613036e-08 -3.060547873e-05 7.623605526e-10)
(8.428129887e-08 -3.064436881e-05 3.384862656e-09)
(9.768308252e-08 -3.068483295e-05 -6.363139479e-09)
(1.103289806e-07 -3.07267398e-05 7.050195403e-10)
(1.297984906e-07 -3.076185863e-05 2.687086179e-09)
(1.377340023e-07 -3.080799995e-05 2.393064956e-09)
(1.531056972e-07 -3.085371717e-05 2.868765423e-09)
(1.519682949e-07 -3.091892017e-05 -1.679756122e-09)
(3.011859034e-05 -8.587081996e-08 1.047989989e-09)
(3.004535929e-05 -1.128791921e-07 -4.949077668e-09)
(2.998820632e-05 -1.398058541e-07 4.746991928e-09)
(2.995048424e-05 -1.558531908e-07 -2.114693482e-09)
(2.991541564e-05 -1.808578149e-07 2.638141148e-09)
(2.98949138e-05 -2.084336413e-07 2.022380016e-09)
(2.98658686e-05 -2.316236181e-07 2.334302125e-09)
(2.984864869e-05 -2.54787022e-07 -1.465975968e-09)
(2.983607912e-05 -2.807005337e-07 -4.051311483e-09)
(2.983760867e-05 -3.082103351e-07 -3.589872714e-11)
(2.983210103e-05 -3.31078044e-07 -1.001251485e-09)
(2.98325905e-05 -3.560649364e-07 3.590852805e-09)
(2.982983287e-05 -3.887334742e-07 3.157250249e-10)
(2.984687283e-05 -4.136419736e-07 2.727465238e-09)
(2.98648553e-05 -4.379314871e-07 7.064489411e-10)
(2.987336924e-05 -4.668888381e-07 4.197986931e-09)
(2.990014743e-05 -4.973643781e-07 -1.36730896e-09)
(2.991824288e-05 -5.255232641e-07 -4.921900266e-09)
(2.994051711e-05 -5.450361972e-07 -4.141287245e-09)
(2.997567323e-05 -5.742969107e-07 4.972455622e-09)
(3.000712991e-05 -6.070368615e-07 -9.652361127e-10)
(3.002964415e-05 -6.3418366e-07 4.978071462e-09)
(3.00747012e-05 -6.597578542e-07 -2.711494938e-11)
(3.01205317e-05 -6.912902624e-07 -2.552215591e-09)
(3.016695758e-05 -7.219352016e-07 3.347661145e-09)
(3.020644996e-05 -7.478271631e-07 2.204244532e-09)
(3.02687956e-05 -7.833623214e-07 -4.103528932e-09)
(3.032385622e-05 -8.10580788e-07 -1.215387184e-10)
(3.03759795e-05 -8.407547714e-07 2.675312258e-09)
(3.043748286e-05 -8.697754789e-07 -3.559887159e-09)
(3.0503561e-05 -8.981212179e-07 -1.754425524e-09)
(3.056252903e-05 -9.267748315e-07 -4.44085294e-09)
(3.063717021e-05 -9.608270403e-07 -3.677456382e-09)
(3.07128728e-05 -9.841155204e-07 -8.427787471e-11)
(3.079696969e-05 -1.024788043e-06 1.693721267e-09)
(3.087167627e-05 -1.050393035e-06 5.033322287e-09)
(3.096260211e-05 -1.079698019e-06 5.361981222e-10)
(3.105286931e-05 -1.111795025e-06 -5.785567022e-10)
(3.114507086e-05 -1.143889373e-06 3.681719105e-09)
(3.125133738e-05 -1.175451006e-06 3.841986478e-09)
(3.135324981e-05 -1.20950732e-06 -2.693112848e-09)
(3.144982457e-05 -1.235923687e-06 5.716241792e-09)
(3.155785514e-05 -1.262660405e-06 -2.024302605e-09)
(3.166760529e-05 -1.29341766e-06 -6.187988995e-09)
(3.179661689e-05 -1.326788626e-06 2.139839027e-10)
(3.19138753e-05 -1.351273662e-06 1.086297385e-09)
(3.203743128e-05 -1.386777964e-06 3.009556195e-09)
(3.217606256e-05 -1.412342605e-06 -4.373675812e-09)
(3.232093024e-05 -1.441302567e-06 3.577041974e-09)
(3.245821101e-05 -1.472514259e-06 9.073533481e-10)
(3.259660106e-05 -1.499919896e-06 -1.657213901e-09)
(3.274859076e-05 -1.52409779e-06 -1.00462181e-09)
(3.291911966e-05 -1.55965399e-06 -3.639747913e-09)
(3.309073266e-05 -1.590186364e-06 -1.652068663e-09)
(3.326539529e-05 -1.615485197e-06 -2.413721237e-09)
(3.346014106e-05 -1.650503687e-06 -2.113611929e-09)
(3.36673821e-05 -1.687709084e-06 -4.315519739e-09)
(3.391195374e-05 -1.726242104e-06 2.952344887e-09)
(3.420562222e-05 -1.773648174e-06 -2.564070546e-09)
(3.463405364e-05 -1.849352771e-06 4.439743992e-09)
)
;
    }
    frontAndBack
    {
        type            empty;
    }
}


// ************************************************************************* //
