/*--------------------------------*- C++ -*----------------------------------*\
  =========                 |
  \\      /  F ield         | OpenFOAM: The Open Source CFD Toolbox
   \\    /   O peration     | Website:  https://openfoam.org
    \\  /    A nd           | Version:  6
     \\/     M anipulation  |
\*---------------------------------------------------------------------------*/
FoamFile
{
    version     2.0;
    format      ascii;
    class       volScalarField;
    location    "20.5";
    object      iDof;
}
// * * * * * * * * * * * * * * * * * * * * * * * * * * * * * * * * * * * * * //

dimensions      [0 -3 0 0 0 0 0];

internalField   nonuniform List<scalar> 
3600
(
1.577519999e+16
1.40616e+16
1.517039999e+16
1.265039999e+16
1.5372e+16
1.335599999e+16
1.461599997e+16
1.501920006e+16
1.557359997e+16
1.597679996e+16
1.411200005e+16
1.723679996e+16
1.481759997e+16
1.406160005e+16
1.305359997e+16
1.622879996e+16
1.638000006e+16
1.506959997e+16
1.567439997e+16
1.567440006e+16
1.406159997e+16
1.466639997e+16
1.426320005e+16
1.491839997e+16
1.567439997e+16
1.688400006e+16
1.602719996e+16
1.673279996e+16
1.426320005e+16
1.522079997e+16
1.41624e+16
1.355760001e+16
1.49688e+16
1.62288e+16
1.370880001e+16
1.62288e+16
1.431359998e+16
1.557360007e+16
1.406159998e+16
1.557359998e+16
1.406160006e+16
1.446479998e+16
1.456559998e+16
1.496880007e+16
1.426319998e+16
1.511999998e+16
1.567440007e+16
1.557359998e+16
1.522079998e+16
1.466640006e+16
1.557359998e+16
1.426319998e+16
1.567440007e+16
1.511999998e+16
1.481759998e+16
1.617840007e+16
1.527119998e+16
1.436399998e+16
1.567440007e+16
1.426319998e+16
1.426319999e+16
1.512e+16
1.522079999e+16
1.345679999e+16
1.59264e+16
1.627919999e+16
1.340639997e+16
1.486800006e+16
1.406159997e+16
1.713599996e+16
1.466640006e+16
1.446479997e+16
1.643039996e+16
1.386000005e+16
1.401119997e+16
1.542239997e+16
1.668240006e+16
1.562399997e+16
1.622879996e+16
1.386000005e+16
1.456559997e+16
1.330559997e+16
1.471680006e+16
1.466639997e+16
1.542239997e+16
1.643040006e+16
1.370879997e+16
1.597679996e+16
1.648080006e+16
1.557359997e+16
1.612799999e+16
1.27008e+16
1.527119999e+16
1.547279999e+16
1.47672e+16
1.527119999e+16
1.658159996e+16
1.426320005e+16
1.627919996e+16
1.391039997e+16
1.658160006e+16
1.481759997e+16
1.527119997e+16
1.456560006e+16
1.461599997e+16
1.431359997e+16
1.532160006e+16
1.673279996e+16
1.612799996e+16
1.466640006e+16
1.537199997e+16
1.436399997e+16
1.527120006e+16
1.506959997e+16
1.496879997e+16
1.537200006e+16
1.592639996e+16
1.577519997e+16
1.396080005e+16
1.627919996e+16
1.6632e+16
1.562400001e+16
1.47672e+16
1.62792e+16
1.587600001e+16
1.50192e+16
1.396079998e+16
1.562400007e+16
1.713599997e+16
1.431359998e+16
1.537200007e+16
1.653119997e+16
1.557359998e+16
1.446480006e+16
1.441439998e+16
1.350719998e+16
1.461600006e+16
1.456559998e+16
1.466639998e+16
1.668240007e+16
1.552319998e+16
1.552319998e+16
1.506960007e+16
1.607759997e+16
1.451519998e+16
1.587600007e+16
1.476719998e+16
1.582559997e+16
1.607760007e+16
1.451519998e+16
1.562399999e+16
1.39608e+16
1.456559999e+16
1.547279999e+16
1.47168e+16
1.617839999e+16
1.431359997e+16
1.552320006e+16
1.678319996e+16
1.582559997e+16
1.315440005e+16
1.365839997e+16
1.517039997e+16
1.562400006e+16
1.501919997e+16
1.627919996e+16
1.501920006e+16
1.517039997e+16
1.527119997e+16
1.723680007e+16
1.547279997e+16
1.648079996e+16
1.638000006e+16
1.522079997e+16
1.658159996e+16
1.476720006e+16
1.582559997e+16
1.557359997e+16
1.527120006e+16
1.396079997e+16
1.476719997e+16
1.431359998e+16
1.597679996e+16
1.527119997e+16
1.617839997e+16
1.481759997e+16
1.441439994e+16
1.567440003e+16
1.401119994e+16
1.522079994e+16
1.653120003e+16
1.401119994e+16
1.506959994e+16
1.562400003e+16
1.552319994e+16
1.330559995e+16
1.607760003e+16
1.506959994e+16
1.683359993e+16
1.461600003e+16
1.587599994e+16
1.491839994e+16
1.375920003e+16
1.547279994e+16
1.522079994e+16
1.547280003e+16
1.587599994e+16
1.456559994e+16
1.517040003e+16
1.653119993e+16
1.461600006e+16
1.638000007e+16
1.562400006e+16
1.597680006e+16
1.436400006e+16
1.441440005e+16
1.486800003e+16
1.542240012e+16
1.506960003e+16
1.562400003e+16
1.446480012e+16
1.501920003e+16
1.632960003e+16
1.396080011e+16
1.562400003e+16
1.552320003e+16
1.653120013e+16
1.587600003e+16
1.597680003e+16
1.658160013e+16
1.607760003e+16
1.602720003e+16
1.597680013e+16
1.532160003e+16
1.406160003e+16
1.496880012e+16
1.406160003e+16
1.597680003e+16
1.622880013e+16
1.627920003e+16
1.501919997e+16
1.542239998e+16
1.310399997e+16
1.612799996e+16
1.577519997e+16
1.436399997e+16
1.572479994e+16
1.491840003e+16
1.426319994e+16
1.552319994e+16
1.486800003e+16
1.411199994e+16
1.486799994e+16
1.542240003e+16
1.481759994e+16
1.406159994e+16
1.552320003e+16
1.365839995e+16
1.637999993e+16
1.562400003e+16
1.557359994e+16
1.496879994e+16
1.532160003e+16
1.476719994e+16
1.597679994e+16
1.542240003e+16
1.577519994e+16
1.481759994e+16
1.365840003e+16
1.567439994e+16
1.431359997e+16
1.466639998e+16
1.668239996e+16
1.517039997e+16
1.486799998e+16
1.401119997e+16
1.355759995e+16
1.673280003e+16
1.557359994e+16
1.632959993e+16
1.648080003e+16
1.637999993e+16
1.607759994e+16
1.597680003e+16
1.627919993e+16
1.431359994e+16
1.512000003e+16
1.517039994e+16
1.637999993e+16
1.718640003e+16
1.527119994e+16
1.567439994e+16
1.496880003e+16
1.471679994e+16
1.597679994e+16
1.411200003e+16
1.567439994e+16
1.607759994e+16
1.572480003e+16
1.517039994e+16
1.572480006e+16
1.522080007e+16
1.386000005e+16
1.512000006e+16
1.501920007e+16
1.456560006e+16
1.607760003e+16
1.345680011e+16
1.451520003e+16
1.451520003e+16
1.547280012e+16
1.360800003e+16
1.577520003e+16
1.476720012e+16
1.426320003e+16
1.456560003e+16
1.562400012e+16
1.532160003e+16
1.476720003e+16
1.436400011e+16
1.532160003e+16
1.506960003e+16
1.456560012e+16
1.663200003e+16
1.547280003e+16
1.617840013e+16
1.582560003e+16
1.512000003e+16
1.501920012e+16
1.567440003e+16
1.542239997e+16
1.532159998e+16
1.330559997e+16
1.461599997e+16
1.426319998e+16
1.406159997e+16
1.396079994e+16
1.552320003e+16
1.431359994e+16
1.446479994e+16
1.663200003e+16
1.617839994e+16
1.385999994e+16
1.542240003e+16
1.587599994e+16
1.436399994e+16
1.456560003e+16
1.456559994e+16
1.396079994e+16
1.406160003e+16
1.567439994e+16
1.527119994e+16
1.577520003e+16
1.396079994e+16
1.567439994e+16
1.496880003e+16
1.612799994e+16
1.537199994e+16
1.597680003e+16
1.648079993e+16
1.587599997e+16
1.496879998e+16
1.517039997e+16
1.436399997e+16
1.441439998e+16
1.496879997e+16
1.552319994e+16
1.607760003e+16
1.597679994e+16
1.426319994e+16
1.532160003e+16
1.542239994e+16
1.501919994e+16
1.617840003e+16
1.501919994e+16
1.476719994e+16
1.481760003e+16
1.622879994e+16
1.436399994e+16
1.456560003e+16
1.517039994e+16
1.517039994e+16
1.557360003e+16
1.622879994e+16
1.577519994e+16
1.708560003e+16
1.557359994e+16
1.496879994e+16
1.486800003e+16
1.567439994e+16
1.567440006e+16
1.532160007e+16
1.517040006e+16
1.436400005e+16
1.486800007e+16
1.612800006e+16
1.552320003e+16
1.401120011e+16
1.522080003e+16
1.295280003e+16
1.582560013e+16
1.592640003e+16
1.572480003e+16
1.481760012e+16
1.557360003e+16
1.527120003e+16
1.552320012e+16
1.471680003e+16
1.537200003e+16
1.527120012e+16
1.552320003e+16
1.577520003e+16
1.421280011e+16
1.708560003e+16
1.517040003e+16
1.622880013e+16
1.517040003e+16
1.627920003e+16
1.527120012e+16
1.769040004e+16
1.542239997e+16
1.396079998e+16
1.481759997e+16
1.728719996e+16
1.607759997e+16
1.577519997e+16
1.592639994e+16
1.391040003e+16
1.587599994e+16
1.431359994e+16
1.491840003e+16
1.733759993e+16
1.622879994e+16
1.587600003e+16
1.552319994e+16
1.547279994e+16
1.501920003e+16
1.617839994e+16
1.527119994e+16
1.532160003e+16
1.471679994e+16
1.537199994e+16
1.572480003e+16
1.517039994e+16
1.522079994e+16
1.622880003e+16
1.486799994e+16
1.456559994e+16
1.527120003e+16
1.476719994e+16
1.466639997e+16
1.486799998e+16
1.592639996e+16
1.461599997e+16
1.517039998e+16
1.476719997e+16
1.456559994e+16
1.436400003e+16
1.511999994e+16
1.648079993e+16
1.396080003e+16
1.577519994e+16
1.517039994e+16
1.703520003e+16
1.602719994e+16
1.663199993e+16
1.406160003e+16
1.491839994e+16
1.365839995e+16
1.396080003e+16
1.562399994e+16
1.491839994e+16
1.537200003e+16
1.461599994e+16
1.567439994e+16
1.653120003e+16
1.421279994e+16
1.491839994e+16
1.582560003e+16
1.501919994e+16
1.506960006e+16
1.451520006e+16
1.446480005e+16
1.572480006e+16
1.501920007e+16
1.562400006e+16
1.411200003e+16
1.370880011e+16
1.506960003e+16
1.411200003e+16
1.597680013e+16
1.481760003e+16
1.627920003e+16
1.638000013e+16
1.461600003e+16
1.587600003e+16
1.638000013e+16
1.567440003e+16
1.456560003e+16
1.557360012e+16
1.688400003e+16
1.486800003e+16
1.607760013e+16
1.632960003e+16
1.597680003e+16
1.416240011e+16
1.597680003e+16
1.380960003e+16
1.370880011e+16
1.350720003e+16
1.461599997e+16
1.522079998e+16
1.511999997e+16
1.481759997e+16
1.542239998e+16
1.486799997e+16
1.461599994e+16
1.592640003e+16
1.547279994e+16
1.537199994e+16
1.567440003e+16
1.567439994e+16
1.436399994e+16
1.380960003e+16
1.527119994e+16
1.673279993e+16
1.582560003e+16
1.693439993e+16
1.547279994e+16
1.426320003e+16
1.396079994e+16
1.678319993e+16
1.698480003e+16
1.466639994e+16
1.446479994e+16
1.486800003e+16
1.612799994e+16
1.612799994e+16
1.597680003e+16
1.537199994e+16
1.582559997e+16
1.552319998e+16
1.446479997e+16
1.355759997e+16
1.431359998e+16
1.471679997e+16
1.527119994e+16
1.547280003e+16
1.537199994e+16
1.486799994e+16
1.567440003e+16
1.501919994e+16
1.506959994e+16
1.396080003e+16
1.476719994e+16
1.421279994e+16
1.602720003e+16
1.648079993e+16
1.602719994e+16
1.527120003e+16
1.547279994e+16
1.648079993e+16
1.552320003e+16
1.486799994e+16
1.567439994e+16
1.567440003e+16
1.491839994e+16
1.698479993e+16
1.602720003e+16
1.436399994e+16
1.355760005e+16
1.522080007e+16
1.441440005e+16
1.562400006e+16
1.668240007e+16
1.542240006e+16
1.532160003e+16
1.542240012e+16
1.542240003e+16
1.607760003e+16
1.340640011e+16
1.506960003e+16
1.522080003e+16
1.602720013e+16
1.587600003e+16
1.612800003e+16
1.748880014e+16
1.421280003e+16
1.512000003e+16
1.355760011e+16
1.592640003e+16
1.436400003e+16
1.638000013e+16
1.471680003e+16
1.512000003e+16
1.491840012e+16
1.617840003e+16
1.416240003e+16
1.602720013e+16
1.627920003e+16
1.572479997e+16
1.451519998e+16
1.678319996e+16
1.375919997e+16
1.476719998e+16
1.426319997e+16
1.683359993e+16
1.592640003e+16
1.668239993e+16
1.446479994e+16
1.592640003e+16
1.340639995e+16
1.617839994e+16
1.506960003e+16
1.411199994e+16
1.511999994e+16
1.612800003e+16
1.587599994e+16
1.411199994e+16
1.506960003e+16
1.476719994e+16
1.345679995e+16
1.496880003e+16
1.532159994e+16
1.517039994e+16
1.627920003e+16
1.501919994e+16
1.562399994e+16
1.471680003e+16
1.511999994e+16
1.612799996e+16
1.511999998e+16
1.411199997e+16
1.385999997e+16
1.325519998e+16
1.451519997e+16
1.663199993e+16
1.501920003e+16
1.567439994e+16
1.511999994e+16
1.466640003e+16
1.632959993e+16
1.461599994e+16
1.486800003e+16
1.496879994e+16
1.511999994e+16
1.486800003e+16
1.688399993e+16
1.557359994e+16
1.471680003e+16
1.446479994e+16
1.451519994e+16
1.310400003e+16
1.426319994e+16
1.491839994e+16
1.572480003e+16
1.643039993e+16
1.416239994e+16
1.496880003e+16
1.456559994e+16
1.557360006e+16
1.527120007e+16
1.532160006e+16
1.512000006e+16
1.380960006e+16
1.431360005e+16
1.436400003e+16
1.527120012e+16
1.501920003e+16
1.532160003e+16
1.496880012e+16
1.501920003e+16
1.406160003e+16
1.451520012e+16
1.506960003e+16
1.391040003e+16
1.562400012e+16
1.648080003e+16
1.537200003e+16
1.562400012e+16
1.456560003e+16
1.592640003e+16
1.431360011e+16
1.587600003e+16
1.421280003e+16
1.436400011e+16
1.491840003e+16
1.456560003e+16
1.401120011e+16
1.512000003e+16
1.562399997e+16
1.572479997e+16
1.396079997e+16
1.733759996e+16
1.426319998e+16
1.416239997e+16
1.506959994e+16
1.552320003e+16
1.577519994e+16
1.572479994e+16
1.572480003e+16
1.572479994e+16
1.456559994e+16
1.602720003e+16
1.451519994e+16
1.496879994e+16
1.638000003e+16
1.532159994e+16
1.476719994e+16
1.552320003e+16
1.496879994e+16
1.511999994e+16
1.441440003e+16
1.501919994e+16
1.637999993e+16
1.501920003e+16
1.391039994e+16
1.572479994e+16
1.693440003e+16
1.592639994e+16
1.587599997e+16
1.365839998e+16
1.396079997e+16
1.562399997e+16
1.653119997e+16
1.411199997e+16
1.491839994e+16
1.441440003e+16
1.663199993e+16
1.406159994e+16
1.517040003e+16
1.517039994e+16
1.380959994e+16
1.360800003e+16
1.466639994e+16
1.375919994e+16
1.723680003e+16
1.466639994e+16
1.506959994e+16
1.436400003e+16
1.552319994e+16
1.582559994e+16
1.461600003e+16
1.486799994e+16
1.466639994e+16
1.496880003e+16
1.683359993e+16
1.547279994e+16
1.587600003e+16
1.542239994e+16
1.512000006e+16
1.411200006e+16
1.577520006e+16
1.617840006e+16
1.481760007e+16
1.491840006e+16
1.471680003e+16
1.567440013e+16
1.436400003e+16
1.643040003e+16
1.638000013e+16
1.572480003e+16
1.380960003e+16
1.607760013e+16
1.466640003e+16
1.401120003e+16
1.471680012e+16
1.572480003e+16
1.496880003e+16
1.481760012e+16
1.587600003e+16
1.375920003e+16
1.537200012e+16
1.668240003e+16
1.476720003e+16
1.597680013e+16
1.547280003e+16
1.512000003e+16
1.522080012e+16
1.491840003e+16
1.365839997e+16
1.436399998e+16
1.441439997e+16
1.360799997e+16
1.567439997e+16
1.517039997e+16
1.456559994e+16
1.431360003e+16
1.562399994e+16
1.401119994e+16
1.491840003e+16
1.552319994e+16
1.486799994e+16
1.476720003e+16
1.501919994e+16
1.441439994e+16
1.552320003e+16
1.542239994e+16
1.542239994e+16
1.582560003e+16
1.738799993e+16
1.476719994e+16
1.305360003e+16
1.476719994e+16
1.426319994e+16
1.491840003e+16
1.436399994e+16
1.617839994e+16
1.562400003e+16
1.592639994e+16
1.431359997e+16
1.506959998e+16
1.496879997e+16
1.567439997e+16
1.380959998e+16
1.532159997e+16
1.552319994e+16
1.386000003e+16
1.643039993e+16
1.522079994e+16
1.471680003e+16
1.436399994e+16
1.648079993e+16
1.486800003e+16
1.340639995e+16
1.380959994e+16
1.532160003e+16
1.542239994e+16
1.441439994e+16
1.663200003e+16
1.360799995e+16
1.643039993e+16
1.451520003e+16
1.552319994e+16
1.501919994e+16
1.380960003e+16
1.627919993e+16
1.627919993e+16
1.557360003e+16
1.552319994e+16
1.537200006e+16
1.396080006e+16
1.506960006e+16
1.456560006e+16
1.411200006e+16
1.476720006e+16
1.537200003e+16
1.572480013e+16
1.527120003e+16
1.406160003e+16
1.406160011e+16
1.532160003e+16
1.375920003e+16
1.471680012e+16
1.522080003e+16
1.461600003e+16
1.456560012e+16
1.446480003e+16
1.491840003e+16
1.537200012e+16
1.547280003e+16
1.678320003e+16
1.486800012e+16
1.653120003e+16
1.663200003e+16
1.496880012e+16
1.587600003e+16
1.567440003e+16
1.537200012e+16
1.501920003e+16
1.567439997e+16
1.456559998e+16
1.537199997e+16
1.486799997e+16
1.466639998e+16
1.527119997e+16
1.466639994e+16
1.416240003e+16
1.597679994e+16
1.446479994e+16
1.441440003e+16
1.466639994e+16
1.385999994e+16
1.446480003e+16
1.506959994e+16
1.501919994e+16
1.582560003e+16
1.577519994e+16
1.562399994e+16
1.406160003e+16
1.617839994e+16
1.370879995e+16
1.537200003e+16
1.426319994e+16
1.602719994e+16
1.501920003e+16
1.411199994e+16
1.527119994e+16
1.582560003e+16
1.486799994e+16
1.547279997e+16
1.602720006e+16
1.506959997e+16
1.602719996e+16
1.587600006e+16
1.577519997e+16
1.663199996e+16
1.648080006e+16
1.733759996e+16
1.481759997e+16
1.617840006e+16
1.456559997e+16
1.723679996e+16
1.789200007e+16
1.688399996e+16
1.763999996e+16
1.612800006e+16
1.602719996e+16
1.491839997e+16
1.587600006e+16
1.632959996e+16
1.537199997e+16
1.512000006e+16
1.597679996e+16
1.532159997e+16
1.567440006e+16
1.476719997e+16
1.557359997e+16
1.421280005e+16
1.572479997e+16
1.496879998e+16
1.476720006e+16
1.597679997e+16
1.441439998e+16
1.355760006e+16
1.421279998e+16
1.426319998e+16
1.632960007e+16
1.653119997e+16
1.552319998e+16
1.784160008e+16
1.612799997e+16
1.572479997e+16
1.451520006e+16
1.637999997e+16
1.653119997e+16
1.471680006e+16
1.663199997e+16
1.663199997e+16
1.617840007e+16
1.587599997e+16
1.486799998e+16
1.597680007e+16
1.537199998e+16
1.728719997e+16
1.486800007e+16
1.668239997e+16
1.637999997e+16
1.663200007e+16
1.602719997e+16
1.461599997e+16
1.451520006e+16
1.582559997e+16
1.622879996e+16
1.602720006e+16
1.637999996e+16
1.522079997e+16
1.456560006e+16
1.365839997e+16
1.602719996e+16
1.562400006e+16
1.471679997e+16
1.537199997e+16
1.723680007e+16
1.663199996e+16
1.602719996e+16
1.577520006e+16
1.577519997e+16
1.723679996e+16
1.819440007e+16
1.643039996e+16
1.592639996e+16
1.764000007e+16
1.693439996e+16
1.622879996e+16
1.486800006e+16
1.572479997e+16
1.501919997e+16
1.648080006e+16
1.587599997e+16
1.582559997e+16
1.607760006e+16
1.612799996e+16
1.713599996e+16
1.577520006e+16
1.572479997e+16
1.683359996e+16
1.648080006e+16
1.456559997e+16
1.466639997e+16
1.728720007e+16
1.481759997e+16
1.673279996e+16
1.774080007e+16
1.436399997e+16
1.602719996e+16
1.517040006e+16
1.562399997e+16
1.567439997e+16
1.542240006e+16
1.557359997e+16
1.562399997e+16
1.627920006e+16
1.607759996e+16
1.562399997e+16
1.622880006e+16
1.537199997e+16
1.612799996e+16
1.517040006e+16
1.728719996e+16
1.658159997e+16
1.648080007e+16
1.511999998e+16
1.587599997e+16
1.592640007e+16
1.532159998e+16
1.506959998e+16
1.587600007e+16
1.617839997e+16
1.557359998e+16
1.441440006e+16
1.703519997e+16
1.617839997e+16
1.622880007e+16
1.668239997e+16
1.738799997e+16
1.557360007e+16
1.849679997e+16
1.708559997e+16
1.441440006e+16
1.592639997e+16
1.718639997e+16
1.582560007e+16
1.547279998e+16
1.673279997e+16
1.517040007e+16
1.532159998e+16
1.658159997e+16
1.476720006e+16
1.648079997e+16
1.451519997e+16
1.360800005e+16
1.542239997e+16
1.476719997e+16
1.501920006e+16
1.456559997e+16
1.693439996e+16
1.617840006e+16
1.607759996e+16
1.607759996e+16
1.597680006e+16
1.653119996e+16
1.552319997e+16
1.648080006e+16
1.627919996e+16
1.577519997e+16
1.577520006e+16
1.446479997e+16
1.562399997e+16
1.658160006e+16
1.663199996e+16
1.602719996e+16
1.441440005e+16
1.789199996e+16
1.713599996e+16
1.632960006e+16
1.718639996e+16
1.779119996e+16
1.592640006e+16
1.748879996e+16
1.607759994e+16
1.481760003e+16
1.688399993e+16
1.617839994e+16
1.577520003e+16
1.496879994e+16
1.602719994e+16
1.481760003e+16
1.456559994e+16
1.532159994e+16
1.496880003e+16
1.728719993e+16
1.622879994e+16
1.496880003e+16
1.597679994e+16
1.622879994e+16
1.557360003e+16
1.360799995e+16
1.632959993e+16
1.653120003e+16
1.653119993e+16
1.557359994e+16
1.723680003e+16
1.602719994e+16
1.748879993e+16
1.638000003e+16
1.693439993e+16
1.537199994e+16
1.622880003e+16
1.456559994e+16
1.617840003e+16
1.592640013e+16
1.416240003e+16
1.632960003e+16
1.612800013e+16
1.572480003e+16
1.426320003e+16
1.471680012e+16
1.537200003e+16
1.713600003e+16
1.552320012e+16
1.668240003e+16
1.421280003e+16
1.512000012e+16
1.597680003e+16
1.587600003e+16
1.627920013e+16
1.577520003e+16
1.632960003e+16
1.577520013e+16
1.753920004e+16
1.426320003e+16
1.572480013e+16
1.527120003e+16
1.648080003e+16
1.527120012e+16
1.512000003e+16
1.658160003e+16
1.638000013e+16
1.547280003e+16
1.577519994e+16
1.683360003e+16
1.476719994e+16
1.491839994e+16
1.481760003e+16
1.637999993e+16
1.577519994e+16
1.622880003e+16
1.446479994e+16
1.527119994e+16
1.592640003e+16
1.491839994e+16
1.446479994e+16
1.461600003e+16
1.501919994e+16
1.592639994e+16
1.552320003e+16
1.476719994e+16
1.723679993e+16
1.476720003e+16
1.557359994e+16
1.572479994e+16
1.627920003e+16
1.693439993e+16
1.527119994e+16
1.738800003e+16
1.708559993e+16
1.527119994e+16
1.577520003e+16
1.683359993e+16
1.637999993e+16
1.355760003e+16
1.673279993e+16
1.557359994e+16
1.476720003e+16
1.622879994e+16
1.491839994e+16
1.471680003e+16
1.648079993e+16
1.698479993e+16
1.627920003e+16
1.643039993e+16
1.622879994e+16
1.648080003e+16
1.663199993e+16
1.567439994e+16
1.451520003e+16
1.627919993e+16
1.668239993e+16
1.562400003e+16
1.784159993e+16
1.451519994e+16
1.436400003e+16
1.592639994e+16
1.693439993e+16
1.638000003e+16
1.683359993e+16
1.758959993e+16
1.572480003e+16
1.627919993e+16
1.506960003e+16
1.522080012e+16
1.522080003e+16
1.592640003e+16
1.643040013e+16
1.491840003e+16
1.421280003e+16
1.723680014e+16
1.617840003e+16
1.708560003e+16
1.683360013e+16
1.809360004e+16
1.703520003e+16
1.552320012e+16
1.733760003e+16
1.617840003e+16
1.627920013e+16
1.612800003e+16
1.542240003e+16
1.663200013e+16
1.713600003e+16
1.658160003e+16
1.753920014e+16
1.481760003e+16
1.758960004e+16
1.542240012e+16
1.733760003e+16
1.542240003e+16
1.607760013e+16
1.728720003e+16
1.643039993e+16
1.512000003e+16
1.643039993e+16
1.612799994e+16
1.527120003e+16
1.461599994e+16
1.486799994e+16
1.638000003e+16
1.617839994e+16
1.592639994e+16
1.653120003e+16
1.542239994e+16
1.532159994e+16
1.562400003e+16
1.491839994e+16
1.643039993e+16
1.552320003e+16
1.627919993e+16
1.587599994e+16
1.617840003e+16
1.532159994e+16
1.577519994e+16
1.532160003e+16
1.658159993e+16
1.496879994e+16
1.587600003e+16
1.582559994e+16
1.562399994e+16
1.537200003e+16
1.632959993e+16
1.577519994e+16
1.512000003e+16
1.617839994e+16
1.517039994e+16
1.552320003e+16
1.542239994e+16
1.517039994e+16
1.557360003e+16
1.491839994e+16
1.511999994e+16
1.643040003e+16
1.648079993e+16
1.517039994e+16
1.764000004e+16
1.572479994e+16
1.658159993e+16
1.673280003e+16
1.557359994e+16
1.637999993e+16
1.547280003e+16
1.597679994e+16
1.824479993e+16
1.491840003e+16
1.501919994e+16
1.688399993e+16
1.653120003e+16
1.552319994e+16
1.537199994e+16
1.527120003e+16
1.522079994e+16
1.678320003e+16
1.557360012e+16
1.592640003e+16
1.532160003e+16
1.481760012e+16
1.582560003e+16
1.643040003e+16
1.486800012e+16
1.607760003e+16
1.708560003e+16
1.617840013e+16
1.406160003e+16
1.572480003e+16
1.491840012e+16
1.582560003e+16
1.748880003e+16
1.632960013e+16
1.612800003e+16
1.617840003e+16
1.723680014e+16
1.622880003e+16
1.547280003e+16
1.552320012e+16
1.809360004e+16
1.471680003e+16
1.461600012e+16
1.496880003e+16
1.602720003e+16
1.653120013e+16
1.638000003e+16
1.698479993e+16
1.567440003e+16
1.567439994e+16
1.582559994e+16
1.607760003e+16
1.673279993e+16
1.617839994e+16
1.345680003e+16
1.738799993e+16
1.542239994e+16
1.612800003e+16
1.446479994e+16
1.683359993e+16
1.517040003e+16
1.602719994e+16
1.501919994e+16
1.501920003e+16
1.537199994e+16
1.648079993e+16
1.622880003e+16
1.622879994e+16
1.688399993e+16
1.517040003e+16
1.612799994e+16
1.653119993e+16
1.758960004e+16
1.582559994e+16
1.517039994e+16
1.597680003e+16
1.668239993e+16
1.511999994e+16
1.506960003e+16
1.567439994e+16
1.592639994e+16
1.522080003e+16
1.511999994e+16
1.532159994e+16
1.517040003e+16
1.567439994e+16
1.607759994e+16
1.668240003e+16
1.416239994e+16
1.622879994e+16
1.638000003e+16
1.461599994e+16
1.486799994e+16
1.582560003e+16
1.577519994e+16
1.567439994e+16
1.547280003e+16
1.617839994e+16
1.688399993e+16
1.512000003e+16
1.426319994e+16
1.360799995e+16
1.577520003e+16
1.713599993e+16
1.653119993e+16
1.612800003e+16
1.648079993e+16
1.542240003e+16
1.476720012e+16
1.466640003e+16
1.643040003e+16
1.653120013e+16
1.648080003e+16
1.522080003e+16
1.668240013e+16
1.582560003e+16
1.426320003e+16
1.824480015e+16
1.562400003e+16
1.572480003e+16
1.673280013e+16
1.466640003e+16
1.486800003e+16
1.698480014e+16
1.678320003e+16
1.648080003e+16
1.582560013e+16
1.648080003e+16
1.617840003e+16
1.577520013e+16
1.481760003e+16
1.668240003e+16
1.572480013e+16
1.512000003e+16
1.753920004e+16
1.648080013e+16
1.784160004e+16
1.511999994e+16
1.527120003e+16
1.663199993e+16
1.496879994e+16
1.779120004e+16
1.592639994e+16
1.562399994e+16
1.653120003e+16
1.562399994e+16
1.582559994e+16
1.638000003e+16
1.718639993e+16
1.436399994e+16
1.607760003e+16
1.587599994e+16
1.688399993e+16
1.612800003e+16
1.587599994e+16
1.622879994e+16
1.632960003e+16
1.668239993e+16
1.401119994e+16
1.678320003e+16
1.552319994e+16
1.486799994e+16
1.401120003e+16
1.632959993e+16
1.481759994e+16
1.476720003e+16
1.547279994e+16
1.466639994e+16
1.552320003e+16
1.552319994e+16
1.663199993e+16
1.607760003e+16
1.688399993e+16
1.743839993e+16
1.461600003e+16
1.612799994e+16
1.511999994e+16
1.668240003e+16
1.627919993e+16
1.557359994e+16
1.723680003e+16
1.577519994e+16
1.774079993e+16
1.582560003e+16
1.643039993e+16
1.627919993e+16
1.587600003e+16
1.406159994e+16
1.592639994e+16
1.496880003e+16
1.769039993e+16
1.486799994e+16
1.577520003e+16
1.506959994e+16
1.572479994e+16
1.713600003e+16
1.537199994e+16
1.461600003e+16
1.632960013e+16
1.517040003e+16
1.622880003e+16
1.582560013e+16
1.577520003e+16
1.466640003e+16
1.461600012e+16
1.587600003e+16
1.668240003e+16
1.441440012e+16
1.527120003e+16
1.748880003e+16
1.728720014e+16
1.688400003e+16
1.668240003e+16
1.421280011e+16
1.643040003e+16
1.527120003e+16
1.764000014e+16
1.723680003e+16
1.612800003e+16
1.532160012e+16
1.527120003e+16
1.607760003e+16
1.466640012e+16
1.678320003e+16
1.567440003e+16
1.728720014e+16
1.582560003e+16
1.476719994e+16
1.481760003e+16
1.673279993e+16
1.522079994e+16
1.622880003e+16
1.577519994e+16
1.602719994e+16
1.406160003e+16
1.340639995e+16
1.678319993e+16
1.542240003e+16
1.501919994e+16
1.612799994e+16
1.638000003e+16
1.637999993e+16
1.461599994e+16
1.532160003e+16
1.723679993e+16
1.577519994e+16
1.466640003e+16
1.461599994e+16
1.733759993e+16
1.517040003e+16
1.476719994e+16
1.874879993e+16
1.607760003e+16
1.511999994e+16
1.637999993e+16
1.663200003e+16
1.612799994e+16
1.602719994e+16
1.547280003e+16
1.622879994e+16
1.602719994e+16
1.466640003e+16
1.612799994e+16
1.643039993e+16
1.582560003e+16
1.446479994e+16
1.673279993e+16
1.582560003e+16
1.532159994e+16
1.592639994e+16
1.597680003e+16
1.466639994e+16
1.501919994e+16
1.466640003e+16
1.612799994e+16
1.506959994e+16
1.431360003e+16
1.456559994e+16
1.522079994e+16
1.476720003e+16
1.582559994e+16
1.511999994e+16
1.486800003e+16
1.824479993e+16
1.496879994e+16
1.577520003e+16
1.668239993e+16
1.517040003e+16
1.491840012e+16
1.486800003e+16
1.678320003e+16
1.416240011e+16
1.607760003e+16
1.491840003e+16
1.552320012e+16
1.703520003e+16
1.542240003e+16
1.562400012e+16
1.355760003e+16
1.517040003e+16
1.552320012e+16
1.512000003e+16
1.451520003e+16
1.638000013e+16
1.653120003e+16
1.678320003e+16
1.703520014e+16
1.501920003e+16
1.612800003e+16
1.501920012e+16
1.401120003e+16
1.844640004e+16
1.537200012e+16
1.607760003e+16
1.592640003e+16
1.627920013e+16
1.748880003e+16
1.547279994e+16
1.658160003e+16
1.532159994e+16
1.511999994e+16
1.441440003e+16
1.582559994e+16
1.527119994e+16
1.733760003e+16
1.552319994e+16
1.421279994e+16
1.380960003e+16
1.673279993e+16
1.718639993e+16
1.567440003e+16
1.607759994e+16
1.617839994e+16
1.643040003e+16
1.537199994e+16
1.648079993e+16
1.612800003e+16
1.542239994e+16
1.617839994e+16
1.713600003e+16
1.627919993e+16
1.562399994e+16
1.602720003e+16
1.668239993e+16
1.617839994e+16
1.592640003e+16
1.562399994e+16
1.547279994e+16
1.607760003e+16
1.632959993e+16
1.486799994e+16
1.527120003e+16
1.733759993e+16
1.466639994e+16
1.708560003e+16
1.567439994e+16
1.698479993e+16
1.486800003e+16
1.688399993e+16
1.517039994e+16
1.562400003e+16
1.572479994e+16
1.678319993e+16
1.819440004e+16
1.562399994e+16
1.587599994e+16
1.673280003e+16
1.683359993e+16
1.627919993e+16
1.572480003e+16
1.431359994e+16
1.632959993e+16
1.597680003e+16
1.622879994e+16
1.617839994e+16
1.537200003e+16
1.607759994e+16
1.416240003e+16
1.617840013e+16
1.451520003e+16
1.592640003e+16
1.597680013e+16
1.486800003e+16
1.733760003e+16
1.643040013e+16
1.678320003e+16
1.512000003e+16
1.421280011e+16
1.506960003e+16
1.512000003e+16
1.658160013e+16
1.567440003e+16
1.713600003e+16
1.643040013e+16
1.602720003e+16
1.602720003e+16
1.476720012e+16
1.481760003e+16
1.481760003e+16
1.602720013e+16
1.486800003e+16
1.532160003e+16
1.562400012e+16
1.653120003e+16
1.572480003e+16
1.486800012e+16
1.764000004e+16
1.632959993e+16
1.658160003e+16
1.718639993e+16
1.668239993e+16
1.557360003e+16
1.622879994e+16
1.607759994e+16
1.512000003e+16
1.542239994e+16
1.572479994e+16
1.587600003e+16
1.592639994e+16
1.592639994e+16
1.643040003e+16
1.517039994e+16
1.456559994e+16
1.602720003e+16
1.683359993e+16
1.632959993e+16
1.582560003e+16
1.622879994e+16
1.612799994e+16
1.486800003e+16
1.582559994e+16
1.688399993e+16
1.748880003e+16
1.557359994e+16
1.461599994e+16
1.557360003e+16
1.653119993e+16
1.678319993e+16
1.643040003e+16
1.501919994e+16
1.607759994e+16
1.572480003e+16
1.592639994e+16
1.597679994e+16
1.683360003e+16
1.648079993e+16
1.653119993e+16
1.496880003e+16
1.436399994e+16
1.602719994e+16
1.592640003e+16
1.476719994e+16
1.617839994e+16
1.653120003e+16
1.562399994e+16
1.627919993e+16
1.627920003e+16
1.587599994e+16
1.622879994e+16
1.617840003e+16
1.592639994e+16
1.557359994e+16
1.708560003e+16
1.597679994e+16
1.582559994e+16
1.592640003e+16
1.748879993e+16
1.582560003e+16
1.663200013e+16
1.572480003e+16
1.632960003e+16
1.638000013e+16
1.738800003e+16
1.683360003e+16
1.562400012e+16
1.386000003e+16
1.638000003e+16
1.592640013e+16
1.577520003e+16
1.663200003e+16
1.416240011e+16
1.355760003e+16
1.607760003e+16
1.537200012e+16
1.713600003e+16
1.542240003e+16
1.527120012e+16
1.627920003e+16
1.622880003e+16
1.592640013e+16
1.658160003e+16
1.542240003e+16
1.653120013e+16
1.441440003e+16
1.486800003e+16
1.643040013e+16
1.698480003e+16
1.567439994e+16
1.431360003e+16
1.522079994e+16
1.617839994e+16
1.572480003e+16
1.496879994e+16
1.416239994e+16
1.406160003e+16
1.602719994e+16
1.547279994e+16
1.512000003e+16
1.597679994e+16
1.577519994e+16
1.552320003e+16
1.547279994e+16
1.632959993e+16
1.557360003e+16
1.703519993e+16
1.481759994e+16
1.522080003e+16
1.547279994e+16
1.632959993e+16
1.567440003e+16
1.486799994e+16
1.607759994e+16
1.476720003e+16
1.683359993e+16
1.668239993e+16
1.537200003e+16
1.572479994e+16
1.607759996e+16
1.506959998e+16
1.345679997e+16
1.496879997e+16
1.481759998e+16
1.517039997e+16
1.637999993e+16
1.522080003e+16
1.582559994e+16
1.748879993e+16
1.486800003e+16
1.481759994e+16
1.592639994e+16
1.597680003e+16
1.471679994e+16
1.426319994e+16
1.547280003e+16
1.597679994e+16
1.416239994e+16
1.456560003e+16
1.517039994e+16
1.426319994e+16
1.738800003e+16
1.562399994e+16
1.517039994e+16
1.562400003e+16
1.451519994e+16
1.572479994e+16
1.567440003e+16
1.582559994e+16
1.466640006e+16
1.577520007e+16
1.461600006e+16
1.310400005e+16
1.557360007e+16
1.522080006e+16