/*--------------------------------*- C++ -*----------------------------------*\
  =========                 |
  \\      /  F ield         | OpenFOAM: The Open Source CFD Toolbox
   \\    /   O peration     | Website:  https://openfoam.org
    \\  /    A nd           | Version:  6
     \\/     M anipulation  |
\*---------------------------------------------------------------------------*/
FoamFile
{
    version     2.0;
    format      ascii;
    class       volScalarField;
    location    "20.5";
    object      iDofMean;
}
// * * * * * * * * * * * * * * * * * * * * * * * * * * * * * * * * * * * * * //

dimensions      [0 -3 0 0 0 0 0];

internalField   nonuniform List<scalar> 
3600
(
1.494889618e+16
1.494736156e+16
1.495974127e+16
1.497022644e+16
1.498498701e+16
1.499724673e+16
1.501476477e+16
1.502295523e+16
1.503245001e+16
1.505174804e+16
1.506971266e+16
1.50826843e+16
1.510226212e+16
1.512061419e+16
1.513698797e+16
1.516030326e+16
1.517087258e+16
1.519608135e+16
1.521765354e+16
1.523449952e+16
1.525650137e+16
1.528303487e+16
1.530108111e+16
1.533034056e+16
1.5353172e+16
1.53734978e+16
1.539912845e+16
1.542520123e+16
1.544622131e+16
1.547572218e+16
1.499828965e+16
1.498463004e+16
1.498615236e+16
1.499115498e+16
1.500077426e+16
1.501337376e+16
1.502723447e+16
1.503598302e+16
1.505043471e+16
1.506192197e+16
1.508192962e+16
1.509453347e+16
1.511087045e+16
1.512845595e+16
1.515249987e+16
1.516006724e+16
1.518081738e+16
1.520194006e+16
1.522223675e+16
1.524649669e+16
1.526563729e+16
1.528645668e+16
1.530717338e+16
1.5332983e+16
1.535513885e+16
1.537460513e+16
1.540045263e+16
1.54266562e+16
1.54509481e+16
1.547781392e+16
1.50171481e+16
1.501185438e+16
1.501435225e+16
1.501686438e+16
1.502593393e+16
1.502858422e+16
1.503691963e+16
1.505113399e+16
1.506511609e+16
1.507177725e+16
1.509318725e+16
1.510549952e+16
1.512025911e+16
1.513650667e+16
1.515550616e+16
1.517462766e+16
1.519580264e+16
1.521557411e+16
1.522974119e+16
1.524171089e+16
1.527044471e+16
1.528926185e+16
1.531330299e+16
1.533061051e+16
1.535162952e+16
1.538831343e+16
1.540392358e+16
1.542809542e+16
1.544885882e+16
1.547944687e+16
1.503824922e+16
1.503693932e+16
1.502915707e+16
1.503200848e+16
1.504014132e+16
1.504637469e+16
1.50539568e+16
1.506292562e+16
1.507389601e+16
1.50865034e+16
1.509998806e+16
1.511769387e+16
1.513184569e+16
1.514736406e+16
1.516378996e+16
1.517875605e+16
1.520251789e+16
1.521148851e+16
1.52354617e+16
1.524968393e+16
1.527522066e+16
1.53006016e+16
1.531675821e+16
1.533771666e+16
1.535493379e+16
1.538559429e+16
1.540456771e+16
1.543494933e+16
1.545086844e+16
1.547894926e+16
1.505449033e+16
1.504755529e+16
1.504339888e+16
1.505047652e+16
1.505185774e+16
1.505649355e+16
1.506879654e+16
1.506991918e+16
1.508742487e+16
1.509847107e+16
1.510889093e+16
1.512665818e+16
1.513689357e+16
1.515596452e+16
1.516850838e+16
1.518426268e+16
1.520128469e+16
1.52209888e+16
1.524151954e+16
1.52585504e+16
1.528015496e+16
1.53037279e+16
1.531912284e+16
1.534173982e+16
1.536500348e+16
1.539009637e+16
1.541345927e+16
1.543310789e+16
1.545160846e+16
1.548371097e+16
1.506717686e+16
1.506393258e+16
1.506084367e+16
1.506152911e+16
1.506378064e+16
1.506576664e+16
1.508107642e+16
1.508472251e+16
1.509319946e+16
1.511135231e+16
1.511966816e+16
1.512944616e+16
1.515005509e+16
1.515719821e+16
1.51684951e+16
1.51961143e+16
1.520854277e+16
1.522113335e+16
1.52408282e+16
1.52666434e+16
1.528159811e+16
1.530922518e+16
1.532470126e+16
1.534395446e+16
1.536893417e+16
1.539555874e+16
1.541195021e+16
1.543617663e+16
1.545723112e+16
1.548243744e+16
1.507796686e+16
1.507062372e+16
1.506885897e+16
1.506913629e+16
1.507179053e+16
1.507964653e+16
1.508921808e+16
1.509673833e+16
1.510622968e+16
1.511788217e+16
1.512276293e+16
1.514063838e+16
1.515221169e+16
1.516993635e+16
1.518447507e+16
1.519569484e+16
1.521411919e+16
1.522892541e+16
1.525179717e+16
1.526864463e+16
1.529041537e+16
1.530644503e+16
1.532646941e+16
1.534720806e+16
1.536941701e+16
1.539157932e+16
1.541808571e+16
1.543718018e+16
1.545945116e+16
1.547793091e+16
1.508299171e+16
1.507980201e+16
1.508028977e+16
1.508030256e+16
1.509068545e+16
1.508686882e+16
1.50965982e+16
1.510656421e+16
1.511292092e+16
1.512341887e+16
1.51305492e+16
1.51433576e+16
1.515623739e+16
1.517335871e+16
1.519104731e+16
1.520102995e+16
1.521881804e+16
1.523643141e+16
1.525332646e+16
1.526879419e+16
1.529186944e+16
1.531312496e+16
1.532981015e+16
1.535321583e+16
1.537885197e+16
1.5397651e+16
1.541408969e+16
1.544435575e+16
1.546412836e+16
1.54831067e+16
1.509317094e+16
1.508952789e+16
1.509151193e+16
1.508832173e+16
1.509168994e+16
1.509214672e+16
1.509996238e+16
1.510527634e+16
1.511995126e+16
1.512549526e+16
1.513406826e+16
1.515066183e+16
1.516569234e+16
1.517448415e+16
1.51900707e+16
1.520374261e+16
1.522317842e+16
1.524174324e+16
1.525463924e+16
1.527285905e+16
1.529898141e+16
1.531366822e+16
1.533297273e+16
1.535714448e+16
1.537811777e+16
1.539879218e+16
1.541939856e+16
1.543779185e+16
1.5460943e+16
1.5484448e+16
1.509096957e+16
1.50941057e+16
1.509238618e+16
1.508595071e+16
1.509400636e+16
1.510500683e+16
1.510170597e+16
1.511553582e+16
1.512034266e+16
1.513018222e+16
1.514590759e+16
1.515687603e+16
1.51662519e+16
1.518211692e+16
1.519710113e+16
1.52080539e+16
1.522849082e+16
1.524360091e+16
1.526377467e+16
1.527522908e+16
1.529893027e+16
1.531809653e+16
1.533574792e+16
1.535854486e+16
1.5376147e+16
1.539484967e+16
1.542122035e+16
1.544200382e+16
1.546448673e+16
1.549105605e+16
1.509725564e+16
1.509488809e+16
1.50961375e+16
1.509967189e+16
1.510416021e+16
1.51082281e+16
1.510861996e+16
1.511920551e+16
1.512090428e+16
1.512974911e+16
1.514126941e+16
1.516108365e+16
1.516989062e+16
1.518362802e+16
1.519818542e+16
1.521548025e+16
1.522899688e+16
1.524557126e+16
1.526299097e+16
1.528420823e+16
1.529756439e+16
1.531904511e+16
1.533903163e+16
1.535977667e+16
1.537909045e+16
1.540045128e+16
1.541996705e+16
1.544373029e+16
1.546098733e+16
1.548257025e+16
1.510302377e+16
1.509783825e+16
1.509718377e+16
1.510315457e+16
1.510471624e+16
1.510839666e+16
1.511843434e+16
1.512575103e+16
1.51303966e+16
1.513742261e+16
1.515190643e+16
1.516314185e+16
1.517442507e+16
1.518521468e+16
1.520042064e+16
1.521669812e+16
1.523363015e+16
1.524693762e+16
1.526395119e+16
1.529069574e+16
1.529384798e+16
1.531404044e+16
1.533734253e+16
1.536300219e+16
1.537817726e+16
1.540054511e+16
1.542424434e+16
1.544478344e+16
1.54676612e+16
1.548909414e+16
1.510600155e+16
1.510113808e+16
1.510547691e+16
1.510171043e+16
1.510711725e+16
1.51093196e+16
1.511625903e+16
1.512444801e+16
1.513287579e+16
1.514125449e+16
1.514796884e+16
1.516657299e+16
1.517466797e+16
1.518851453e+16
1.520046785e+16
1.522024432e+16
1.523336561e+16
1.52482736e+16
1.526839819e+16
1.528335847e+16
1.530350855e+16
1.531597973e+16
1.533827333e+16
1.53580153e+16
1.5381336e+16
1.540667178e+16
1.542362676e+16
1.544241391e+16
1.546641718e+16
1.548797255e+16
1.51043372e+16
1.510084757e+16
1.510132452e+16
1.510618997e+16
1.510886043e+16
1.511150876e+16
1.511412757e+16
1.511948677e+16
1.51302423e+16
1.514005726e+16
1.515057055e+16
1.516060915e+16
1.517593518e+16
1.519038212e+16
1.520585754e+16
1.521799434e+16
1.522958594e+16
1.525259923e+16
1.526960935e+16
1.528575662e+16
1.529925242e+16
1.532329101e+16
1.534449401e+16
1.536375212e+16
1.538226294e+16
1.540547702e+16
1.542548057e+16
1.544701588e+16
1.546932916e+16
1.548503469e+16
1.510173108e+16
1.510440056e+16
1.509709576e+16
1.510620955e+16
1.510041085e+16
1.511091864e+16
1.511392784e+16
1.512358999e+16
1.51345235e+16
1.514498802e+16
1.515069682e+16
1.516919378e+16
1.517801944e+16
1.519292169e+16
1.520340678e+16
1.521733636e+16
1.523731696e+16
1.525252097e+16
1.527156282e+16
1.52857408e+16
1.53054631e+16
1.532217474e+16
1.534876243e+16
1.53660311e+16
1.538148645e+16
1.54049631e+16
1.542873757e+16
1.545213938e+16
1.546064601e+16
1.548631256e+16
1.510050525e+16
1.50962397e+16
1.509635228e+16
1.510343534e+16
1.510854713e+16
1.511138673e+16
1.511559523e+16
1.512170133e+16
1.51296197e+16
1.514141183e+16
1.515219013e+16
1.516547599e+16
1.517576545e+16
1.518944139e+16
1.5201497e+16
1.521776365e+16
1.523433133e+16
1.524893445e+16
1.527045944e+16
1.529135314e+16
1.531073764e+16
1.531774594e+16
1.533823891e+16
1.536219137e+16
1.538371438e+16
1.540512635e+16
1.542724179e+16
1.545250866e+16
1.547479095e+16
1.5494024e+16
1.509722564e+16
1.50931022e+16
1.509815104e+16
1.509181933e+16
1.509893729e+16
1.510760756e+16
1.511416593e+16
1.512288594e+16
1.51293105e+16
1.51396575e+16
1.51535257e+16
1.516337303e+16
1.517713003e+16
1.518990713e+16
1.520107076e+16
1.5216681e+16
1.523793955e+16
1.524609493e+16
1.526704068e+16
1.528639583e+16
1.530768913e+16
1.532365438e+16
1.534908557e+16
1.536316995e+16
1.538908096e+16
1.540630407e+16
1.542868159e+16
1.545000939e+16
1.546981889e+16
1.549022958e+16
1.509159208e+16
1.509611481e+16
1.509838501e+16
1.509007073e+16
1.509831667e+16
1.510470836e+16
1.511042099e+16
1.512049566e+16
1.512746849e+16
1.513710005e+16
1.515342678e+16
1.515778815e+16
1.517698194e+16
1.518787089e+16
1.52004467e+16
1.521384376e+16
1.523680511e+16
1.524756701e+16
1.52648879e+16
1.529031859e+16
1.530714964e+16
1.532504632e+16
1.53406109e+16
1.536191502e+16
1.538836002e+16
1.540419605e+16
1.543071815e+16
1.544884691e+16
1.546831271e+16
1.549037602e+16
1.508932874e+16
1.508985734e+16
1.509218507e+16
1.508871756e+16
1.509454184e+16
1.510338419e+16
1.510315356e+16
1.511291059e+16
1.512815836e+16
1.513762224e+16
1.515418156e+16
1.516292452e+16
1.517223402e+16
1.51862094e+16
1.520226651e+16
1.521785363e+16
1.522694735e+16
1.524719381e+16
1.526737889e+16
1.528189319e+16
1.530179348e+16
1.532278151e+16
1.534395108e+16
1.536470449e+16
1.538444457e+16
1.540869713e+16
1.542767793e+16
1.545040169e+16
1.54735902e+16
1.549916185e+16
1.508102586e+16
1.508216909e+16
1.508649413e+16
1.508429719e+16
1.508982006e+16
1.509707322e+16
1.510200256e+16
1.511189874e+16
1.512369619e+16
1.513330907e+16
1.514327262e+16
1.515463885e+16
1.516890032e+16
1.517880289e+16
1.520150839e+16
1.520842671e+16
1.522437335e+16
1.524679856e+16
1.526622542e+16
1.528534703e+16
1.530488542e+16
1.532318382e+16
1.534623957e+16
1.536701854e+16
1.538884444e+16
1.540358443e+16
1.543513918e+16
1.545625064e+16
1.54731325e+16
1.549642755e+16
1.507192821e+16
1.507920155e+16
1.507958999e+16
1.508092939e+16
1.508849138e+16
1.508954804e+16
1.509602921e+16
1.510580051e+16
1.51132011e+16
1.512476558e+16
1.51366994e+16
1.515194912e+16
1.516169033e+16
1.5174879e+16
1.519572631e+16
1.521071011e+16
1.522792388e+16
1.524407737e+16
1.526303023e+16
1.528171912e+16
1.530457851e+16
1.531951019e+16
1.534190656e+16
1.536213777e+16
1.538827546e+16
1.540570607e+16
1.542808752e+16
1.544889756e+16
1.547614167e+16
1.549353917e+16
1.506732238e+16
1.506591316e+16
1.506998104e+16
1.507530575e+16
1.507608167e+16
1.508778626e+16
1.509740648e+16
1.51038617e+16
1.510982751e+16
1.51222441e+16
1.5129103e+16
1.514433798e+16
1.515798483e+16
1.517248289e+16
1.51897201e+16
1.520611905e+16
1.522211731e+16
1.524450073e+16
1.525994968e+16
1.527851269e+16
1.530195427e+16
1.531982488e+16
1.533999775e+16
1.536694667e+16
1.538782112e+16
1.540440108e+16
1.543202069e+16
1.54482726e+16
1.547073387e+16
1.549757364e+16
1.506317246e+16
1.50610242e+16
1.505852189e+16
1.506339176e+16
1.5074377e+16
1.507924489e+16
1.508430109e+16
1.50928977e+16
1.510107864e+16
1.511096096e+16
1.512765403e+16
1.514037391e+16
1.515240206e+16
1.517686164e+16
1.518539661e+16
1.520006621e+16
1.521902652e+16
1.523339904e+16
1.525879917e+16
1.527918593e+16
1.530064788e+16
1.532326594e+16
1.534530385e+16
1.535979536e+16
1.538756895e+16
1.540670039e+16
1.542638237e+16
1.545161974e+16
1.54752257e+16
1.549888559e+16
1.505160299e+16
1.505192212e+16
1.505335987e+16
1.50558243e+16
1.506625883e+16
1.507111099e+16
1.5078046e+16
1.508692828e+16
1.509801276e+16
1.510793394e+16
1.512277326e+16
1.513726969e+16
1.514547776e+16
1.516868004e+16
1.517924773e+16
1.520326517e+16
1.521996314e+16
1.523667373e+16
1.525088211e+16
1.527795166e+16
1.529531671e+16
1.531547327e+16
1.534102984e+16
1.536230249e+16
1.538704078e+16
1.540140314e+16
1.542890473e+16
1.545193532e+16
1.546956607e+16
1.550001251e+16
1.503880188e+16
1.503887811e+16
1.50460644e+16
1.505144024e+16
1.505425084e+16
1.505854246e+16
1.506688228e+16
1.507632855e+16
1.509125917e+16
1.510355233e+16
1.511722533e+16
1.51280664e+16
1.514402329e+16
1.516373936e+16
1.517794274e+16
1.519678594e+16
1.521409117e+16
1.522953366e+16
1.525108174e+16
1.527261663e+16
1.529726387e+16
1.531571076e+16
1.533661382e+16
1.535617139e+16
1.537874077e+16
1.540355633e+16
1.542880886e+16
1.545603912e+16
1.547690185e+16
1.54948004e+16
1.502389193e+16
1.502757138e+16
1.503374378e+16
1.50394107e+16
1.504397179e+16
1.505057786e+16
1.506033479e+16
1.507829645e+16
1.507943614e+16
1.509244229e+16
1.510706771e+16
1.512369472e+16
1.51354062e+16
1.515749574e+16
1.516572586e+16
1.518609877e+16
1.520787607e+16
1.522686327e+16
1.524615492e+16
1.526535617e+16
1.528959382e+16
1.531038516e+16
1.533437319e+16
1.53580793e+16
1.537857514e+16
1.540713703e+16
1.543106932e+16
1.545106509e+16
1.547400333e+16
1.549779007e+16
1.501041464e+16
1.501608747e+16
1.502197714e+16
1.502482904e+16
1.50304109e+16
1.504163609e+16
1.504904018e+16
1.506015139e+16
1.507499594e+16
1.508578597e+16
1.509497999e+16
1.511286674e+16
1.513146755e+16
1.514581269e+16
1.516138056e+16
1.517854508e+16
1.520316101e+16
1.523014534e+16
1.524343226e+16
1.526752206e+16
1.528635977e+16
1.530595677e+16
1.533536734e+16
1.535325803e+16
1.537938047e+16
1.540770929e+16
1.54313082e+16
1.545339668e+16
1.547036411e+16
1.55048455e+16
1.499673043e+16
1.500433124e+16
1.501095945e+16
1.501598126e+16
1.502314298e+16
1.502933013e+16
1.50397066e+16
1.504888784e+16
1.506402693e+16
1.507766541e+16
1.508822541e+16
1.510481651e+16
1.511690219e+16
1.51375294e+16
1.515999394e+16
1.518155237e+16
1.519602093e+16
1.521594975e+16
1.524349077e+16
1.526054965e+16
1.52804342e+16
1.530710147e+16
1.532652251e+16
1.535521552e+16
1.537941145e+16
1.540545776e+16
1.54247744e+16
1.54473895e+16
1.547827814e+16
1.550049586e+16
1.499108669e+16
1.499012295e+16
1.499477794e+16
1.500471091e+16
1.500938165e+16
1.501566763e+16
1.502602197e+16
1.503632725e+16
1.50529808e+16
1.507073489e+16
1.508408139e+16
1.510233741e+16
1.511420624e+16
1.513407523e+16
1.514996024e+16
1.517089026e+16
1.51830483e+16
1.521474613e+16
1.523119718e+16
1.525499e+16
1.527843059e+16
1.530149165e+16
1.532764614e+16
1.534654434e+16
1.537123099e+16
1.540166088e+16
1.542205829e+16
1.545005906e+16
1.547952126e+16
1.549836881e+16
1.496659663e+16
1.497712262e+16
1.498141522e+16
1.498955838e+16
1.499792627e+16
1.500597255e+16
1.501010728e+16
1.502957456e+16
1.504184749e+16
1.505634449e+16
1.507260239e+16
1.50856537e+16
1.510586532e+16
1.512627962e+16
1.514887988e+16
1.516949668e+16
1.518432616e+16
1.520473685e+16
1.52306872e+16
1.525391308e+16
1.527252756e+16
1.530125949e+16
1.53268372e+16
1.534934994e+16
1.53800305e+16
1.540047185e+16
1.542616397e+16
1.545061017e+16
1.547576454e+16
1.550964406e+16
1.550433169e+16
1.552709831e+16
1.555328853e+16
1.557277144e+16
1.559602043e+16
1.562039182e+16
1.564651624e+16
1.567260532e+16
1.569620522e+16
1.571774348e+16
1.574283785e+16
1.577010982e+16
1.578995562e+16
1.581852586e+16
1.583412716e+16
1.585376447e+16
1.587375885e+16
1.589645844e+16
1.591763823e+16
1.593551582e+16
1.594791805e+16
1.59711591e+16
1.598796722e+16
1.600202307e+16
1.601687608e+16
1.603292549e+16
1.60466165e+16
1.606309017e+16
1.607392946e+16
1.608255146e+16
1.549985715e+16
1.552310713e+16
1.55490156e+16
1.557557665e+16
1.559634103e+16
1.56207311e+16
1.564791761e+16
1.567590026e+16
1.569135502e+16
1.571998124e+16
1.574349871e+16
1.576070837e+16
1.578537537e+16
1.581057693e+16
1.582564963e+16
1.584724542e+16
1.587125706e+16
1.58902408e+16
1.590850822e+16
1.592376697e+16
1.594283775e+16
1.595404032e+16
1.59738867e+16
1.599233498e+16
1.600855197e+16
1.601457696e+16
1.602950657e+16
1.603966918e+16
1.604562139e+16
1.603867298e+16
1.54997239e+16
1.552139353e+16
1.555140086e+16
1.557476679e+16
1.559825377e+16
1.562381018e+16
1.564697844e+16
1.566664977e+16
1.568911333e+16
1.571382851e+16
1.573955669e+16
1.575950714e+16
1.578318825e+16
1.580404311e+16
1.581965867e+16
1.584302313e+16
1.586333957e+16
1.588172e+16
1.590238203e+16
1.592071936e+16
1.593146455e+16
1.594626593e+16
1.596644372e+16
1.59743788e+16
1.599105653e+16
1.600118235e+16
1.601330874e+16
1.602004956e+16
1.601927275e+16
1.601138666e+16
1.550039065e+16
1.552802322e+16
1.555173079e+16
1.556894793e+16
1.559760226e+16
1.562229621e+16
1.564338553e+16
1.566921697e+16
1.569111802e+16
1.570975815e+16
1.573305779e+16
1.575906165e+16
1.577676017e+16
1.579565311e+16
1.581484978e+16
1.583684138e+16
1.585492351e+16
1.587272569e+16
1.589077578e+16
1.591330393e+16
1.59288757e+16
1.59357188e+16
1.59514909e+16
1.596474624e+16
1.598132564e+16
1.598356595e+16
1.599372453e+16
1.599878715e+16
1.59974021e+16
1.599633943e+16
1.550148372e+16
1.551884305e+16
1.554609289e+16
1.557069596e+16
1.559808561e+16
1.562128969e+16
1.564390035e+16
1.566373985e+16
1.568776851e+16
1.570420727e+16
1.573329529e+16
1.575086538e+16
1.577390924e+16
1.579184239e+16
1.581435955e+16
1.583320225e+16
1.585076221e+16
1.586252965e+16
1.588753838e+16
1.590212005e+16
1.5918275e+16
1.593241454e+16
1.594234466e+16
1.595072227e+16
1.596648247e+16
1.597228423e+16
1.598100898e+16
1.598490921e+16
1.598527611e+16
1.59822299e+16
1.550639784e+16
1.552409299e+16
1.554963809e+16
1.557877814e+16
1.559757963e+16
1.561995715e+16
1.564292234e+16
1.566634786e+16
1.568516443e+16
1.570930283e+16
1.573106047e+16
1.574790235e+16
1.576650216e+16
1.578945268e+16
1.580925169e+16
1.582948004e+16
1.584673314e+16
1.586722594e+16
1.588187194e+16
1.589678206e+16
1.590910564e+16
1.5925597e+16
1.593819858e+16
1.59442278e+16
1.595724083e+16
1.596511463e+16
1.596559936e+16
1.596970216e+16
1.597028493e+16
1.597731772e+16
1.54990463e+16
1.552372566e+16
1.55554766e+16
1.557374549e+16
1.559474147e+16
1.561810093e+16
1.564137246e+16
1.566274017e+16
1.56841387e+16
1.571085709e+16
1.572885661e+16
1.574472245e+16
1.576413112e+16
1.578806654e+16
1.579932114e+16
1.582844398e+16
1.584158052e+16
1.585496618e+16
1.587295234e+16
1.588794704e+16
1.590671346e+16
1.59120239e+16
1.592615368e+16
1.594026511e+16
1.59519402e+16
1.595533307e+16
1.596524089e+16
1.59614749e+16
1.596119028e+16
1.596314032e+16
1.550605075e+16
1.552609823e+16
1.554924232e+16
1.556962113e+16
1.559707275e+16
1.562108863e+16
1.563816365e+16
1.566100061e+16
1.568346318e+16
1.570608123e+16
1.572982143e+16
1.574634074e+16
1.576639748e+16
1.578245772e+16
1.580236047e+16
1.582607305e+16
1.584064882e+16
1.585545551e+16
1.586893124e+16
1.588027306e+16
1.589742715e+16
1.590809966e+16
1.592645717e+16
1.593804612e+16
1.593958172e+16
1.594713837e+16
1.595409692e+16
1.595635533e+16
1.595617989e+16
1.59579583e+16
1.550638061e+16
1.552984398e+16
1.554962971e+16
1.556829294e+16
1.559853991e+16
1.561797801e+16
1.563853727e+16
1.566536638e+16
1.568496674e+16
1.56993772e+16
1.572698223e+16
1.574611596e+16
1.575957644e+16
1.57833609e+16
1.580277735e+16
1.582141109e+16
1.58365887e+16
1.585214623e+16
1.586881413e+16
1.587848118e+16
1.589199371e+16
1.59069775e+16
1.591677043e+16
1.592732436e+16
1.593252908e+16
1.594354537e+16
1.594706788e+16
1.595217181e+16
1.594738954e+16
1.594827797e+16
1.55061854e+16
1.553335673e+16
1.555416521e+16
1.557311463e+16
1.559706578e+16
1.561348429e+16
1.564212772e+16
1.565871161e+16
1.56770709e+16
1.570392598e+16
1.572522732e+16
1.57449978e+16
1.576163963e+16
1.577918138e+16
1.580035471e+16
1.581735205e+16
1.582759538e+16
1.584788461e+16
1.586386067e+16
1.587893455e+16
1.589325543e+16
1.590738857e+16
1.591539317e+16
1.592842972e+16
1.592797439e+16
1.593722497e+16
1.593540409e+16
1.594498304e+16
1.594489855e+16
1.595009238e+16
1.550430765e+16
1.552740765e+16
1.55475597e+16
1.5573898e+16
1.559868996e+16
1.562117418e+16
1.563745363e+16
1.566088849e+16
1.568092449e+16
1.570285316e+16
1.572621771e+16
1.574554713e+16
1.576364147e+16
1.577945044e+16
1.579810917e+16
1.581421356e+16
1.583799458e+16
1.584736349e+16
1.586240924e+16
1.587818527e+16
1.589524299e+16
1.59003002e+16
1.59063891e+16
1.59226724e+16
1.593204728e+16
1.593435693e+16
1.593930292e+16
1.594511441e+16
1.593990732e+16
1.594490887e+16
1.550544095e+16
1.552879812e+16
1.555135609e+16
1.556858944e+16
1.559763714e+16
1.562350037e+16
1.563965344e+16
1.565875046e+16
1.56788494e+16
1.57045185e+16
1.571927521e+16
1.574301721e+16
1.575969641e+16
1.577899109e+16
1.579257639e+16
1.581799421e+16
1.583423833e+16
1.584180072e+16
1.586476493e+16
1.587653599e+16
1.588982134e+16
1.589972531e+16
1.591234507e+16
1.591922691e+16
1.593115722e+16
1.593573067e+16
1.593583827e+16
1.594455231e+16
1.594027945e+16
1.594381228e+16
1.551109214e+16
1.553602474e+16
1.555856403e+16
1.557719678e+16
1.559450299e+16
1.562044097e+16
1.564265286e+16
1.566462833e+16
1.568023701e+16
1.570252806e+16
1.572471743e+16
1.573825257e+16
1.576032432e+16
1.578535428e+16
1.579957781e+16
1.581465109e+16
1.583489772e+16
1.584708756e+16
1.586346092e+16
1.587364918e+16
1.58945909e+16
1.590140106e+16
1.592096666e+16
1.592284834e+16
1.592679971e+16
1.593539483e+16
1.593952754e+16
1.594088072e+16
1.594619568e+16
1.594061619e+16
1.55112958e+16
1.552975752e+16
1.555453456e+16
1.557542819e+16
1.559667495e+16
1.562218809e+16
1.564033996e+16
1.566617878e+16
1.568059406e+16
1.570404211e+16
1.572354134e+16
1.574743627e+16
1.575589707e+16
1.578590016e+16
1.579882657e+16
1.581795742e+16
1.583312521e+16
1.584944586e+16
1.586202079e+16
1.588239477e+16
1.58910089e+16
1.590313047e+16
1.591062713e+16
1.592068295e+16
1.592630316e+16
1.593367051e+16
1.593815625e+16
1.594602259e+16
1.594806819e+16
1.594912133e+16
1.551205048e+16
1.55349238e+16
1.556402148e+16
1.55724405e+16
1.559828914e+16
1.561939265e+16
1.564342533e+16
1.566732977e+16
1.568262473e+16
1.57056922e+16
1.572838162e+16
1.574533364e+16
1.576230295e+16
1.577602315e+16
1.580366292e+16
1.581761069e+16
1.583389906e+16
1.584927958e+16
1.586902852e+16
1.58847834e+16
1.589519718e+16
1.590559728e+16
1.591596452e+16
1.59267171e+16
1.593022346e+16
1.593699189e+16
1.594562767e+16
1.594960165e+16
1.595582724e+16
1.595317734e+16
1.551560012e+16
1.553862341e+16
1.556212251e+16
1.557737773e+16
1.560172913e+16
1.561944772e+16
1.564292822e+16
1.566420153e+16
1.568647087e+16
1.570680591e+16
1.572344488e+16
1.574517285e+16
1.576566574e+16
1.578461966e+16
1.580856622e+16
1.582270723e+16
1.584089508e+16
1.585635181e+16
1.587209431e+16
1.588336826e+16
1.589752788e+16
1.591075087e+16
1.591593206e+16
1.59299727e+16
1.593476044e+16
1.594728185e+16
1.594757876e+16
1.595530103e+16
1.595809155e+16
1.595383427e+16
1.551818904e+16
1.553422369e+16
1.555715045e+16
1.558495601e+16
1.56073986e+16
1.562466482e+16
1.564626994e+16
1.567147447e+16
1.568699757e+16
1.570559345e+16
1.57264734e+16
1.575149973e+16
1.576689411e+16
1.578210418e+16
1.580551477e+16
1.582196188e+16
1.58431998e+16
1.585532668e+16
1.587230681e+16
1.58877003e+16
1.590370331e+16
1.591029809e+16
1.592430889e+16
1.593089964e+16
1.594105094e+16
1.595226e+16
1.595317645e+16
1.596061745e+16
1.596393754e+16
1.596704062e+16
1.551577025e+16
1.553480433e+16
1.555891511e+16
1.558005016e+16
1.560492768e+16
1.562678547e+16
1.564088517e+16
1.566584383e+16
1.569324659e+16
1.571136158e+16
1.573336016e+16
1.575189203e+16
1.577227035e+16
1.579569095e+16
1.580540454e+16
1.583180234e+16
1.584312645e+16
1.585811507e+16
1.58779476e+16
1.589013563e+16
1.590669281e+16
1.591640796e+16
1.592677471e+16
1.593660287e+16
1.595041641e+16
1.595668231e+16
1.596186188e+16
1.597020664e+16
1.597069401e+16
1.597454744e+16
1.551596791e+16
1.55323094e+16
1.556272044e+16
1.558384123e+16
1.560856976e+16
1.563149308e+16
1.564767664e+16
1.567256596e+16
1.569064546e+16
1.570868424e+16
1.57334054e+16
1.576021172e+16
1.577806217e+16
1.578897324e+16
1.581390125e+16
1.583555554e+16
1.584502592e+16
1.586824867e+16
1.588500311e+16
1.590127821e+16
1.591262673e+16
1.592254988e+16
1.59370091e+16
1.594888276e+16
1.59557593e+16
1.596012378e+16
1.596528415e+16
1.597729755e+16
1.597934806e+16
1.598202482e+16
1.551091423e+16
1.553912553e+16
1.556087955e+16
1.558828093e+16
1.560916678e+16
1.563317971e+16
1.564836954e+16
1.567548187e+16
1.569592206e+16
1.571662736e+16
1.57378515e+16
1.575950128e+16
1.578455821e+16
1.580149564e+16
1.581996457e+16
1.583616091e+16
1.585702563e+16
1.587481059e+16
1.588463883e+16
1.59048127e+16
1.591382707e+16
1.593360355e+16
1.594837304e+16
1.595068299e+16
1.595615127e+16
1.59699998e+16
1.597708866e+16
1.598702508e+16
1.598280337e+16
1.599304898e+16
1.552316012e+16
1.554329808e+16
1.556882252e+16
1.559204142e+16
1.561230624e+16
1.563662404e+16
1.565527941e+16
1.567969522e+16
1.569689998e+16
1.572022756e+16
1.573814546e+16
1.576158653e+16
1.577922505e+16
1.580246766e+16
1.582335776e+16
1.583955952e+16
1.586622341e+16
1.58813212e+16
1.589633892e+16
1.591087732e+16
1.592658974e+16
1.5940035e+16
1.594901316e+16
1.596977541e+16
1.59697523e+16
1.598132325e+16
1.598928833e+16
1.599441536e+16
1.599793803e+16
1.599596374e+16
1.552003433e+16
1.553961667e+16
1.556760308e+16
1.559362079e+16
1.560683354e+16
1.563575962e+16
1.566157278e+16
1.568726555e+16
1.570766591e+16
1.572798719e+16
1.574759509e+16
1.576911015e+16
1.57920478e+16
1.580732474e+16
1.583330401e+16
1.584985882e+16
1.587122555e+16
1.588290794e+16
1.590292682e+16
1.592368482e+16
1.592855854e+16
1.594592909e+16
1.596123453e+16
1.596791283e+16
1.598154541e+16
1.599486929e+16
1.600276799e+16
1.600556581e+16
1.600784593e+16
1.601259575e+16
1.55252711e+16
1.554407947e+16
1.556972292e+16
1.559251846e+16
1.561320173e+16
1.564225073e+16
1.566230649e+16
1.568579691e+16
1.570212445e+16
1.573179702e+16
1.575162373e+16
1.577499647e+16
1.5792605e+16
1.58160905e+16
1.583120942e+16
1.585527703e+16
1.587843211e+16
1.589528478e+16
1.591115612e+16
1.59230806e+16
1.593904429e+16
1.5954833e+16
1.597348553e+16
1.597942574e+16
1.599807128e+16
1.600492185e+16
1.600881559e+16
1.601659586e+16
1.601906236e+16
1.602411702e+16
1.551904306e+16
1.554827858e+16
1.557345686e+16
1.559450045e+16
1.561558938e+16
1.564577324e+16
1.566550889e+16
1.568639915e+16
1.571119391e+16
1.573763153e+16
1.575529473e+16
1.577901952e+16
1.580730057e+16
1.582139151e+16
1.58416532e+16
1.586090847e+16
1.58829626e+16
1.590342639e+16
1.591979386e+16
1.593789073e+16
1.595435891e+16
1.596603647e+16
1.597704834e+16
1.599348209e+16
1.600380254e+16
1.601497176e+16
1.602210094e+16
1.602973814e+16
1.603368761e+16
1.604130752e+16
1.551872836e+16
1.554834791e+16
1.557136465e+16
1.559580988e+16
1.562363813e+16
1.564789348e+16
1.566838242e+16
1.568942267e+16
1.571573138e+16
1.573328436e+16
1.576199572e+16
1.578411804e+16
1.580687327e+16
1.582525584e+16
1.585100695e+16
1.586677994e+16
1.588481241e+16
1.590745839e+16
1.592978879e+16
1.594827068e+16
1.596602958e+16
1.598389873e+16
1.59904813e+16
1.600625715e+16
1.602199916e+16
1.602821295e+16
1.603165284e+16
1.60385515e+16
1.604743771e+16
1.605950118e+16
1.552487823e+16
1.554826932e+16
1.557230634e+16
1.560133626e+16
1.562560309e+16
1.565058271e+16
1.567053226e+16
1.569786882e+16
1.572705598e+16
1.574617307e+16
1.576493672e+16
1.579017743e+16
1.58203127e+16
1.583666698e+16
1.585407037e+16
1.587950934e+16
1.590179607e+16
1.591779908e+16
1.59423938e+16
1.595916651e+16
1.597825942e+16
1.598942216e+16
1.600500298e+16
1.601646016e+16
1.603224494e+16
1.604227193e+16
1.605675656e+16
1.606103687e+16
1.606531038e+16
1.607329513e+16
1.55322331e+16
1.554805681e+16
1.557184652e+16
1.55996683e+16
1.563085393e+16
1.565244767e+16
1.567424947e+16
1.570012518e+16
1.572808406e+16
1.574702462e+16
1.576636307e+16
1.579412674e+16
1.581895894e+16
1.58383382e+16
1.586835685e+16
1.589086426e+16
1.590533824e+16
1.592952277e+16
1.594907307e+16
1.597325629e+16
1.59864556e+16
1.600957863e+16
1.602087028e+16
1.603284868e+16
1.604944233e+16
1.605292271e+16
1.60673267e+16
1.607454792e+16
1.608255742e+16
1.608766322e+16
1.552833337e+16
1.555382504e+16
1.557803761e+16
1.560018066e+16
1.563160527e+16
1.565612958e+16
1.568143775e+16
1.570512288e+16
1.573166713e+16
1.575553165e+16
1.578506221e+16
1.580537111e+16
1.582427036e+16
1.585048927e+16
1.587736099e+16
1.589608422e+16
1.5916648e+16
1.594093088e+16
1.596020876e+16
1.597930233e+16
1.599771668e+16
1.601505379e+16
1.60304753e+16
1.604887588e+16
1.606042755e+16
1.607671447e+16
1.608293989e+16
1.609322493e+16
1.610475505e+16
1.610923344e+16
1.552964878e+16
1.554879889e+16
1.558778627e+16
1.560811051e+16
1.563328699e+16
1.565962324e+16
1.568774545e+16
1.571393683e+16
1.573862929e+16
1.576601445e+16
1.578530176e+16
1.581036989e+16
1.583683997e+16
1.58637866e+16
1.588166351e+16
1.591047461e+16
1.592715784e+16
1.595599933e+16
1.59775371e+16
1.599124943e+16
1.601035462e+16
1.602383281e+16
1.604824569e+16
1.606075709e+16
1.607434542e+16
1.609562709e+16
1.610112085e+16
1.61112156e+16
1.612467815e+16
1.613267076e+16
1.55339526e+16
1.554846247e+16
1.558040714e+16
1.560899205e+16
1.563507426e+16
1.56666762e+16
1.569114897e+16
1.571257127e+16
1.574004779e+16
1.576835882e+16
1.579106348e+16
1.581767215e+16
1.583877721e+16
1.586612557e+16
1.58964648e+16
1.591631355e+16
1.594319921e+16
1.596566966e+16
1.598907641e+16
1.60112279e+16
1.602756478e+16
1.604410877e+16
1.606275342e+16
1.608014208e+16
1.609728151e+16
1.610831059e+16
1.611308204e+16
1.612946081e+16
1.614505539e+16
1.614773806e+16
1.495578202e+16
1.495887782e+16
1.49664801e+16
1.497144044e+16
1.498190939e+16
1.49900791e+16
1.500280692e+16
1.501124076e+16
1.503417587e+16
1.505064561e+16
1.506225687e+16
1.507818073e+16
1.509483583e+16
1.511424853e+16
1.513453186e+16
1.515336967e+16
1.518603042e+16
1.520184856e+16
1.522291134e+16
1.525114034e+16
1.527253296e+16
1.530178905e+16
1.531984266e+16
1.534594486e+16
1.537121272e+16
1.540051856e+16
1.54205703e+16
1.545312723e+16
1.548061916e+16
1.550273066e+16
1.494078503e+16
1.494436024e+16
1.494791479e+16
1.49545017e+16
1.496592308e+16
1.497533289e+16
1.498714612e+16
1.499957066e+16
1.501626748e+16
1.503346692e+16
1.505230431e+16
1.50731177e+16
1.509146428e+16
1.511174041e+16
1.513071237e+16