/*--------------------------------*- C++ -*----------------------------------*\
  =========                 |
  \\      /  F ield         | OpenFOAM: The Open Source CFD Toolbox
   \\    /   O peration     | Website:  https://openfoam.org
    \\  /    A nd           | Version:  6
     \\/     M anipulation  |
\*---------------------------------------------------------------------------*/
FoamFile
{
    version     2.0;
    format      ascii;
    class       volScalarField;
    location    "20.5";
    object      internalE;
}
// * * * * * * * * * * * * * * * * * * * * * * * * * * * * * * * * * * * * * //

dimensions      [1 -1 -2 0 0 0 0];

internalField   nonuniform List<scalar> 
3600
(
2.788772122e-05
2.642330086e-05
2.962583104e-05
2.507276761e-05
2.956519122e-05
2.635022113e-05
2.807668758e-05
2.641646482e-05
2.903490083e-05
2.934707764e-05
2.314169402e-05
3.312337508e-05
3.054389611e-05
2.697361786e-05
2.430269795e-05
2.940498278e-05
3.335986517e-05
2.931019582e-05
2.72939217e-05
3.068215635e-05
2.764210045e-05
2.784141676e-05
2.884010804e-05
2.879515709e-05
3.079750458e-05
3.437007846e-05
3.007352451e-05
2.89462448e-05
3.097761808e-05
2.871884301e-05
2.804086561e-05
2.488216001e-05
3.039290605e-05
2.834737606e-05
2.602796841e-05
2.810098262e-05
2.718150007e-05
2.836504676e-05
2.536311231e-05
2.962889497e-05
2.645086604e-05
2.66527832e-05
2.809950367e-05
2.771069368e-05
2.815234465e-05
2.705732274e-05
2.909251702e-05
3.320143364e-05
3.151521276e-05
2.705496935e-05
3.1861877e-05
2.387205965e-05
2.897263496e-05
3.140209619e-05
2.718633475e-05
3.141101177e-05
3.056337248e-05
2.799313991e-05
2.933956451e-05
2.742508401e-05
2.589675083e-05
2.806113678e-05
3.022220054e-05
2.647475849e-05
3.069126078e-05
3.360055259e-05
2.451614333e-05
2.696751095e-05
2.949257081e-05
3.106197729e-05
2.77204013e-05
2.944337956e-05
3.391774077e-05
2.507019417e-05
2.413534611e-05
2.482291379e-05
3.113899409e-05
2.71258034e-05
2.939033112e-05
2.543152995e-05
2.524012542e-05
2.334583801e-05
2.626840439e-05
2.528196937e-05
2.943717067e-05
3.363654355e-05
2.509702915e-05
2.979670775e-05
3.098660139e-05
3.19329194e-05
3.163982014e-05
2.34619327e-05
3.020689059e-05
2.829917068e-05
2.786511457e-05
2.676855638e-05
2.850450024e-05
2.728401228e-05
2.993579948e-05
2.755200895e-05
3.087778326e-05
2.536148492e-05
2.950883489e-05
3.044170938e-05
2.432397461e-05
2.704433741e-05
2.788134971e-05
3.091678232e-05
3.11639946e-05
2.909579468e-05
2.974033527e-05
2.868384294e-05
2.953999804e-05
3.319548736e-05
3.28735476e-05
2.720287411e-05
3.258014817e-05
3.188671577e-05
2.746132543e-05
3.141722275e-05
3.360317648e-05
3.157343559e-05
2.83948025e-05
3.054599673e-05
3.053186098e-05
2.5486704e-05
2.353989812e-05
2.922232028e-05
3.469463003e-05
2.909052576e-05
2.813713173e-05
3.118750538e-05
2.978290748e-05
2.821051725e-05
2.643543617e-05
2.641792339e-05
2.890998916e-05
2.944459056e-05
2.576232833e-05
3.034804601e-05
3.096359377e-05
3.144970934e-05
2.759642951e-05
3.102259675e-05
2.804608795e-05
2.923591076e-05
2.614823983e-05
3.477975541e-05
3.001612663e-05
2.70584913e-05
2.855705109e-05
2.549204044e-05
2.542352352e-05
2.974287257e-05
3.083093659e-05
3.172908417e-05
2.857707732e-05
3.066453382e-05
3.033087357e-05
3.039391573e-05
2.62056935e-05
2.519303204e-05
3.040644209e-05
3.035774649e-05
2.958451286e-05
3.331478568e-05
3.004607383e-05
3.006497014e-05
2.683951549e-05
3.307928395e-05
2.935904876e-05
3.262054336e-05
2.926516846e-05
2.814142877e-05
2.973706857e-05
2.698779833e-05
2.913948861e-05
2.879574464e-05
2.882134692e-05
2.812738034e-05
2.707445666e-05
2.800729885e-05
3.143495676e-05
3.374234112e-05
2.964491649e-05
2.844467504e-05
3.044570768e-05
2.872571689e-05
2.726197513e-05
2.99130094e-05
3.08574965e-05
2.611985636e-05
2.756209553e-05
2.90536353e-05
3.280855547e-05
2.649748246e-05
2.835415593e-05
3.193749058e-05
2.995280665e-05
2.671810243e-05
2.700545647e-05
2.648571024e-05
2.448532293e-05
2.927780923e-05
3.169020122e-05
2.937587336e-05
3.121303721e-05
2.602497764e-05
2.904468464e-05
2.799603769e-05
3.192042086e-05
2.81768177e-05
2.924375568e-05
2.936312749e-05
2.757178283e-05
2.717825626e-05
2.783066284e-05
3.144873433e-05
2.971650191e-05
3.080980361e-05
2.701794692e-05
2.924178971e-05
3.268676245e-05
2.407090718e-05
3.222831928e-05
2.887111967e-05
2.97346857e-05
3.315715157e-05
2.817604927e-05
3.010087771e-05
3.155822097e-05
2.944562521e-05
3.090577598e-05
2.818109312e-05
2.7827421e-05
2.870390144e-05
2.517703624e-05
2.931488237e-05
3.001451201e-05
3.237065529e-05
2.762036792e-05
2.769254852e-05
2.220605752e-05
3.199421964e-05
2.8920962e-05
2.578820834e-05
2.849227061e-05
2.784679432e-05
2.794224026e-05
2.776281391e-05
2.712895767e-05
2.867014926e-05
2.948628339e-05
2.767158857e-05
2.563367387e-05
2.468081317e-05
2.917647251e-05
2.566547472e-05
3.173480371e-05
3.05518522e-05
2.973418405e-05
2.731246473e-05
2.970372278e-05
2.886873734e-05
2.834860201e-05
3.121733369e-05
3.051037743e-05
2.678036257e-05
2.385769452e-05
2.978894664e-05
2.824678365e-05
2.879589293e-05
3.378590616e-05
3.076119603e-05
3.190436634e-05
2.84352164e-05
2.676188288e-05
3.398091413e-05
2.970685762e-05
2.860649994e-05
3.086527898e-05
2.864605839e-05
3.016512495e-05
2.897125136e-05
2.875630433e-05
2.939392662e-05
3.04419012e-05
2.725789744e-05
3.319768985e-05
3.309287959e-05
2.952034568e-05
3.027708208e-05
2.786154429e-05
2.705044793e-05
2.964935688e-05
2.701571491e-05
3.028876207e-05
3.195289232e-05
2.97697277e-05
2.99774533e-05
3.225488498e-05
2.97223029e-05
2.614913584e-05
2.970165767e-05
2.889937337e-05
2.857725843e-05
3.055875069e-05
2.399784587e-05
2.747365353e-05
2.520167188e-05
2.983346656e-05
2.532450403e-05
3.323296887e-05
2.653506263e-05
2.838559374e-05
2.76746578e-05
3.12496112e-05
2.738779914e-05
2.94360686e-05
2.7762792e-05
2.984911871e-05
3.009786768e-05
2.722476967e-05
3.034627543e-05
2.896593502e-05
2.866509521e-05
3.012798287e-05
2.822534287e-05
2.893575985e-05
3.021295424e-05
2.872927552e-05
2.908120965e-05
2.532645218e-05
2.829520643e-05
2.494034257e-05
2.725087298e-05
2.786884519e-05
2.754594259e-05
2.415253319e-05
2.36677381e-05
3.064451665e-05
3.079117069e-05
2.397547654e-05
2.844565289e-05
2.936462794e-05
2.546828792e-05
2.769573092e-05
2.773307154e-05
2.482968763e-05
2.591237302e-05
2.746898439e-05
3.159841454e-05
2.762367143e-05
2.217495475e-05
2.969143802e-05
3.045247753e-05
3.036526472e-05
2.913001329e-05
2.964541105e-05
3.393373576e-05
2.657207075e-05
2.977178798e-05
2.957329122e-05
2.546429387e-05
2.75534436e-05
2.747547653e-05
2.892287311e-05
3.008188216e-05
2.923223691e-05
2.730506976e-05
3.28280898e-05
2.715447012e-05
2.945207024e-05
2.953939435e-05
2.725200956e-05
2.814460565e-05
2.769325388e-05
2.8468149e-05
2.349216131e-05
2.815232329e-05
2.863231281e-05
2.702657352e-05
2.855929117e-05
2.933452879e-05
3.299399695e-05
3.371337523e-05
3.023636285e-05
2.875336848e-05
2.896538431e-05
2.86401528e-05
2.944217941e-05
2.724048512e-05
2.666049885e-05
2.571942293e-05
2.804901284e-05
3.401801275e-05
2.992385894e-05
2.588161025e-05
3.056621607e-05
2.524181725e-05
3.114412207e-05
2.606306748e-05
3.008794559e-05
2.959345894e-05
2.916142193e-05
2.788996203e-05
2.758624183e-05
2.698352678e-05
3.025725234e-05
3.038929507e-05
2.99051965e-05
3.110746645e-05
2.856059987e-05
2.908004271e-05
2.764440298e-05
2.69358709e-05
3.161599012e-05
2.867958494e-05
2.766427014e-05
3.519307315e-05
2.693498721e-05
2.588395396e-05
2.901949092e-05
3.26572279e-05
3.173479037e-05
3.04985903e-05
3.221715189e-05
2.525902183e-05
2.876104387e-05
2.649551313e-05
3.081637983e-05
3.467161351e-05
2.865458011e-05
3.066064666e-05
2.768390584e-05
2.950402191e-05
3.062979937e-05
2.710788106e-05
3.058800347e-05
2.840246553e-05
2.701824702e-05
3.508253126e-05
2.89844202e-05
2.813610122e-05
2.682786555e-05
2.902481805e-05
2.879840354e-05
2.639179204e-05
3.180157951e-05
2.554981011e-05
2.845195814e-05
2.599843035e-05
3.017236664e-05
2.725807984e-05
3.025168356e-05
2.660989772e-05
2.574342438e-05
2.602136845e-05
3.12816081e-05
2.997372608e-05
2.476196391e-05
3.162233133e-05
2.738254071e-05
2.976795406e-05
2.879689693e-05
3.175693468e-05
2.553030195e-05
2.421302222e-05
2.373418823e-05
2.814980334e-05
2.638528004e-05
2.822070585e-05
2.79935195e-05
2.913517691e-05
3.356613843e-05
3.18978286e-05
2.607519396e-05
2.797701084e-05
2.799759721e-05
2.779191971e-05
2.834174341e-05
2.843631581e-05
2.671007318e-05
2.769018538e-05
2.802356684e-05
3.058453181e-05
2.802329514e-05
2.704880783e-05
2.5961584e-05
2.723947821e-05
2.688001005e-05
3.139753565e-05
3.342911686e-05
3.101728961e-05
2.888163156e-05
2.971243606e-05
3.419413552e-05
2.726452189e-05
2.607623694e-05
3.024179476e-05
3.143027441e-05
2.812804933e-05
2.920200541e-05
3.203303335e-05
2.88944657e-05
2.354991158e-05
2.993317786e-05
2.625068433e-05
2.695613054e-05
2.40368382e-05
2.620562119e-05
3.016978964e-05
2.712216586e-05
2.860875826e-05
2.677601443e-05
2.610315993e-05
2.60887417e-05
3.159949113e-05
3.068178186e-05
2.781410961e-05
3.044980571e-05
2.949877582e-05
2.654955768e-05
2.494534198e-05
2.738562403e-05
3.245244162e-05
3.296799401e-05
3.194460193e-05
2.642303462e-05
2.665323747e-05
2.576648797e-05
3.326581241e-05
3.300775873e-05
2.750171887e-05
2.949174682e-05
2.817422194e-05
2.981811146e-05
2.912378965e-05
3.00795848e-05
2.769489439e-05
2.683569838e-05
3.081026131e-05
2.731230232e-05
2.67342617e-05
2.974456189e-05
2.948071984e-05
2.972212937e-05
3.000317237e-05
3.221669179e-05
2.905611887e-05
2.758873204e-05
2.866879435e-05
3.292603624e-05
2.423415966e-05
2.795683339e-05
2.660773323e-05
3.126848879e-05
3.134147427e-05
2.838228331e-05
2.678856424e-05
2.700483113e-05
3.125509437e-05
3.021294129e-05
2.741636687e-05
2.946313689e-05
2.932599724e-05
2.941037405e-05
3.205589169e-05
2.981311769e-05
2.821998413e-05
2.707476959e-05
2.967829499e-05
2.864098751e-05
3.13927839e-05
3.030824847e-05
2.899195522e-05
2.680481043e-05
2.759966373e-05
3.038129625e-05
3.214832796e-05
2.565256124e-05
2.904424628e-05
2.840228415e-05
3.113796357e-05
2.895113857e-05
3.05696138e-05
3.417271269e-05
2.705554136e-05
2.618582131e-05
2.49629655e-05
3.119688663e-05
2.708205642e-05
2.694349021e-05
3.004210246e-05
2.999815715e-05
2.692246996e-05
3.079627711e-05
2.521410764e-05
2.756963911e-05
2.749587755e-05
3.238758804e-05
2.654846982e-05
3.215373857e-05
2.337687382e-05
2.656571798e-05
2.626493321e-05
3.379501021e-05
2.834151073e-05
3.352859884e-05
2.884226125e-05
2.878919696e-05
2.286402332e-05
2.819136481e-05
2.827176964e-05
2.907502639e-05
3.03714418e-05
3.273568338e-05
2.917781383e-05
2.737334802e-05
2.824987118e-05
2.885941875e-05
2.306941064e-05
2.688232957e-05
2.703112699e-05
2.661273741e-05
3.075486192e-05
2.888881506e-05
2.598800986e-05
2.757285675e-05
2.748944212e-05
3.066129955e-05
2.739374462e-05
2.62381654e-05
2.851952427e-05
2.311120673e-05
2.690254904e-05
3.272636235e-05
2.981399055e-05
2.907200214e-05
2.798008988e-05
2.780059229e-05
3.004845346e-05
2.869423352e-05
2.917674402e-05
2.815292373e-05
2.939725331e-05
2.94557853e-05
3.383814457e-05
2.913870677e-05
2.834649748e-05
2.677110083e-05
2.931445405e-05
2.661171774e-05
2.610231895e-05
3.024422418e-05
2.618647102e-05
3.337047434e-05
2.588962181e-05
2.818386359e-05
2.589934953e-05
3.175200639e-05
2.975979389e-05
2.694430803e-05
2.976990882e-05
2.772560345e-05
2.462025261e-05
2.786951818e-05
2.647083634e-05
2.758344053e-05
2.829805698e-05
2.672833774e-05
2.752110173e-05
2.625329076e-05
2.927417682e-05
2.873238419e-05
2.563972971e-05
3.353692309e-05
3.348637275e-05
2.575891839e-05
3.095726107e-05
2.586573509e-05
3.018191561e-05
2.550386521e-05
2.982204812e-05
2.707278591e-05
2.756720225e-05
2.636029668e-05
2.765198985e-05
2.793257353e-05
2.839668086e-05
2.863419105e-05
2.691345601e-05
2.766151016e-05
3.140660785e-05
2.736226553e-05
2.875399618e-05
2.905535481e-05
2.699365076e-05
3.076120961e-05
2.659111433e-05
3.17121421e-05
2.851632284e-05
2.697108704e-05
2.871145516e-05
2.71246437e-05
2.637719038e-05
2.952715428e-05
2.781794217e-05
2.778969575e-05
3.092700479e-05
3.067840564e-05
2.739412008e-05
3.11375085e-05
2.779340988e-05
2.862582871e-05
2.979521799e-05
2.542712131e-05
3.079397735e-05
3.408921232e-05
3.023050706e-05
3.181973623e-05
2.617332227e-05
2.669961727e-05
2.678225393e-05
3.013266151e-05
2.389855477e-05
2.908639968e-05
2.778735385e-05
3.143944982e-05
2.657819409e-05
2.976192993e-05
2.787155631e-05
2.911683626e-05
2.61526694e-05
2.790953841e-05
2.655884915e-05
3.47787328e-05
2.972702456e-05
2.867979258e-05
3.129244535e-05
2.899228983e-05
2.948157049e-05
2.890026736e-05
2.756981315e-05
2.727589559e-05
3.144483101e-05
3.019418116e-05
2.757003133e-05
2.824524505e-05
3.126034999e-05
3.091985313e-05
2.306609389e-05
3.2517128e-05
2.944708873e-05
2.821556321e-05
2.898654137e-05
2.653513586e-05
2.633623981e-05
2.782617861e-05
2.872900601e-05
2.988060692e-05
3.123526136e-05
2.619371293e-05
2.974302607e-05
2.803888383e-05
2.805984075e-05
2.896649978e-05
2.973097469e-05
2.83885735e-05
3.049176461e-05
2.912523333e-05
2.528225639e-05
2.634605186e-05
3.104048021e-05
3.002641282e-05
2.864137057e-05
3.014633564e-05
2.881495286e-05
2.803365887e-05
2.861435575e-05
2.455281268e-05
2.628297831e-05
2.701493147e-05
2.480020241e-05
3.024852841e-05
2.847890639e-05
2.640790324e-05
2.677373126e-05
2.971371224e-05
2.605616257e-05
2.900640627e-05
2.964709119e-05
2.649949565e-05
2.65972207e-05
2.938940473e-05
2.395979845e-05
3.070606987e-05
2.702781999e-05
3.04442707e-05
2.669937622e-05
3.529984706e-05
2.807184262e-05
2.700446494e-05
2.689813183e-05
2.488488844e-05
2.889396137e-05
2.794580624e-05
3.001014062e-05
2.66365881e-05
3.034004817e-05
2.85093721e-05
2.637876702e-05
2.72539009e-05
2.937152422e-05
2.424257633e-05
2.805957564e-05
3.20540243e-05
2.471499474e-05
2.994770565e-05
2.933853989e-05
2.635572322e-05
2.971298307e-05
3.140791893e-05
3.071964458e-05
2.368923096e-05
2.354328879e-05
2.616676031e-05
2.967961637e-05
2.616386679e-05
3.26466817e-05
2.551850178e-05
3.002069829e-05
2.693001928e-05
3.039067059e-05
3.117453367e-05
2.506791986e-05
3.235410545e-05
3.062903876e-05
2.715367601e-05
2.888789337e-05
2.956865375e-05
2.508072865e-05
2.880832821e-05
3.103335064e-05
2.322551292e-05
2.754535998e-05
2.775219403e-05
3.339549388e-05
2.875704355e-05
2.345605427e-05
2.797844058e-05
2.750423726e-05
2.460607684e-05
2.490088246e-05
2.896225888e-05
2.746921214e-05
2.75005164e-05
2.594488585e-05
3.060931891e-05
2.801612951e-05
3.056474963e-05
3.239465803e-05
2.788508332e-05
3.038490135e-05
2.986534745e-05
2.795740434e-05
2.843287018e-05
2.829421321e-05
2.895894853e-05
3.070006026e-05
3.058229625e-05
2.699281126e-05
2.62204784e-05
2.896579596e-05
2.667260882e-05
3.123376219e-05
2.88288819e-05
2.789751123e-05
3.222150576e-05
2.728143085e-05
2.80587771e-05
2.552483743e-05
2.584943833e-05
2.672333394e-05
2.90537852e-05
2.928131528e-05
2.759406367e-05
3.071407853e-05
3.144105411e-05
2.700739405e-05
3.082301677e-05
2.802820999e-05
2.760340088e-05
3.026121773e-05
3.193753872e-05
2.759476656e-05
2.64725419e-05
2.850605601e-05
2.874173426e-05
2.437924182e-05
3.018482192e-05
3.197243206e-05
3.013287427e-05
2.916396307e-05
2.999776216e-05
2.886766507e-05
3.248930242e-05
3.2445905e-05
3.531224053e-05
2.85959136e-05
3.008765202e-05
2.74876885e-05
3.175075607e-05
3.045216135e-05
3.505834691e-05
3.851049282e-05
3.170491104e-05
3.082511979e-05
2.985176215e-05
2.92956433e-05
2.778400218e-05
2.85469775e-05
2.941364384e-05
3.182764715e-05
2.754181444e-05
3.04233e-05
2.802174807e-05
2.727848444e-05
2.450061821e-05
3.17812852e-05
3.337377632e-05
2.512664554e-05
3.113550928e-05
2.865903882e-05
2.430069949e-05
2.76630596e-05
3.056177813e-05
3.167001854e-05
3.177598977e-05
3.087834934e-05
3.294184964e-05
3.215277785e-05
2.666080871e-05
2.384750662e-05
2.999036724e-05
3.119075799e-05
2.921380878e-05
3.168805234e-05
2.917792298e-05
3.229348124e-05
2.904270058e-05
2.899976027e-05
2.809139004e-05
2.908144053e-05
3.365465418e-05
2.801719627e-05
3.082521908e-05
3.025536958e-05
2.825848357e-05
2.979881852e-05
2.58628273e-05
2.715385618e-05
3.253937383e-05
3.346507984e-05
3.01649222e-05
3.292830119e-05
2.480404421e-05
2.699523368e-05
2.571435339e-05
3.223753304e-05
3.122090701e-05
2.588840859e-05
3.142592396e-05
3.277708769e-05
3.187598408e-05
2.950863216e-05
3.23716677e-05
2.916163231e-05
3.011932806e-05
3.232638524e-05
3.011100924e-05
2.930917771e-05
3.323768815e-05
3.001509841e-05
3.231003512e-05
2.658722231e-05
3.101558501e-05
2.61189599e-05
3.281329592e-05
2.860402778e-05
2.913823761e-05
2.727699346e-05
3.038189097e-05
3.123109641e-05
2.82468426e-05
2.995782576e-05
3.167675774e-05
3.278930985e-05
2.545716315e-05
2.79279422e-05
3.23632329e-05
2.735012452e-05
3.096731156e-05
3.205768232e-05
2.56775238e-05
2.734278816e-05
2.716447864e-05
2.875649534e-05
3.046618812e-05
2.936632298e-05
2.766330868e-05
3.012677136e-05
2.826421044e-05
3.28471719e-05
3.024551968e-05
2.945715357e-05
2.705082121e-05
2.946925192e-05
2.641468073e-05
3.139107016e-05
3.192612687e-05
3.278132744e-05
2.96851559e-05
2.963794011e-05
3.124652744e-05
2.935880741e-05
2.887861404e-05
2.676107648e-05
2.981950837e-05
2.871286667e-05
2.730462122e-05
2.935848406e-05
3.319370733e-05
2.844500211e-05
2.796362977e-05
3.358721844e-05
2.934599761e-05
3.587663427e-05
3.003367852e-05
2.506382082e-05
2.964890052e-05
3.121394381e-05
2.967046692e-05
2.921657935e-05
3.053308401e-05
2.922048466e-05
3.041002372e-05
3.065273748e-05
2.765188461e-05
3.318387787e-05
2.158650831e-05
2.493974028e-05
2.736203539e-05
2.962693979e-05
2.716912936e-05
2.711286839e-05
3.084304864e-05
2.919092388e-05
3.229027655e-05
2.981792264e-05
3.311312236e-05
2.770459141e-05
2.890292356e-05
3.343750027e-05
3.265746644e-05
3.101582744e-05
2.849138765e-05
2.963762538e-05
2.888775051e-05
3.034540098e-05
3.225831928e-05
3.01185696e-05
2.940351951e-05
3.248143551e-05
3.201739551e-05
3.076856244e-05
3.427176677e-05
3.578750198e-05
2.675886881e-05
3.329394006e-05
3.00888279e-05
2.828381268e-05
3.101971249e-05
3.13900434e-05
2.900911896e-05
2.996668609e-05
3.012147618e-05
2.716764218e-05
2.571054242e-05
2.785312376e-05
2.799086861e-05
3.074198485e-05
3.009882062e-05
3.010004122e-05
3.260287868e-05
2.759541271e-05
3.184973506e-05
2.502418968e-05
3.089831215e-05
2.935578237e-05
3.203701402e-05
3.129716621e-05
3.08616024e-05
2.700979754e-05
3.101826632e-05
3.227258469e-05
3.058500463e-05
3.082019772e-05
3.007622541e-05
2.638182061e-05
2.988349991e-05
2.78789856e-05
2.555938107e-05
3.284747008e-05
3.008080668e-05
3.316361319e-05
2.460913356e-05
2.949822997e-05
2.9184123e-05
3.253194427e-05
3.271741918e-05
2.998016987e-05
2.910795535e-05
2.702384114e-05
3.101383314e-05
3.204349165e-05
3.081889882e-05
3.024169105e-05
2.900211627e-05
3.328767723e-05
3.37720494e-05
2.893226072e-05
3.099875005e-05
2.858030316e-05
3.298413003e-05
2.754478736e-05
2.982073473e-05
3.074989783e-05
2.928745577e-05
2.979852211e-05
3.023127773e-05
3.107353377e-05
2.808565499e-05
2.749561737e-05
2.799257414e-05
3.064376922e-05
2.97514755e-05
2.894647392e-05
2.817342839e-05
2.836311437e-05
3.176497019e-05
2.987566847e-05
2.885170256e-05
2.9353645e-05
3.135477838e-05
3.219711788e-05
2.964562242e-05
2.721903457e-05
3.148588567e-05
2.680618127e-05
3.126312898e-05
2.881069897e-05
3.171907748e-05
3.170141048e-05
2.644921336e-05
3.510631257e-05
3.076426568e-05
2.922194021e-05
3.112011228e-05
3.274133915e-05
3.07211461e-05
2.335266509e-05
3.262827825e-05
2.833216134e-05
2.554236505e-05
3.226441246e-05
2.570777948e-05
2.661951143e-05
3.25265355e-05
3.171304441e-05
3.429150968e-05
2.973643376e-05
3.29967183e-05
3.334952344e-05
2.966118008e-05
2.71002133e-05
2.750194972e-05
3.106239326e-05
3.248608968e-05
2.990342056e-05
3.310539183e-05
2.942293713e-05
2.508215365e-05
3.188309086e-05
3.145166887e-05
2.952969678e-05
3.165304573e-05
3.213259349e-05
3.107714895e-05
2.75940742e-05
2.98510539e-05
3.023955658e-05
2.814917745e-05
3.059481289e-05
3.146428369e-05
2.761646367e-05
2.43406653e-05
2.714031506e-05
2.795570209e-05
2.923098124e-05
3.296781654e-05
3.273296598e-05
3.040815825e-05
3.318763685e-05
3.379257138e-05
3.053878178e-05
2.980769329e-05
3.078656604e-05
2.646371931e-05
3.367094263e-05
3.170199537e-05
3.207841073e-05
3.290769459e-05
2.667730035e-05
3.239432619e-05
2.956422568e-05
3.156872111e-05
3.013964553e-05
2.7765647e-05
3.116529585e-05
3.186765945e-05
2.726683943e-05
2.956075244e-05
2.880399186e-05
2.555880224e-05
2.568719071e-05
2.996349406e-05
3.189397249e-05
3.174844666e-05
2.913370752e-05
3.120511784e-05
3.191735557e-05
2.902230901e-05
2.967288715e-05
2.814638135e-05
3.130499434e-05
2.709477267e-05
3.218134982e-05
3.176587692e-05
3.255693406e-05
3.023065832e-05
2.748764535e-05
3.21731699e-05
3.250340848e-05
2.637838609e-05
3.035653573e-05
2.889900208e-05
3.068883787e-05
2.875552994e-05
2.902613243e-05
3.017565752e-05
2.860345201e-05
2.829533985e-05
2.772085739e-05
2.889726511e-05
3.045975013e-05
2.917554245e-05
2.663489378e-05
2.659771025e-05
2.802882104e-05
3.081541013e-05
3.061356984e-05
2.903415737e-05
3.046940818e-05
2.691751502e-05
3.057345938e-05
3.101856206e-05
3.323312023e-05
3.42407569e-05
2.646429994e-05
3.005920719e-05
3.524237866e-05
2.89619408e-05
2.944766901e-05
2.978736942e-05
3.320065523e-05
2.875941272e-05
2.970158342e-05
2.886139466e-05
2.787093013e-05
3.405703067e-05
2.915977321e-05
2.969364436e-05
3.377897867e-05
2.901180363e-05
3.019401066e-05
3.066544016e-05
2.578151728e-05
3.135367918e-05
3.522102872e-05
2.938019179e-05
2.731339765e-05
2.954241716e-05
2.765984237e-05
2.896329424e-05
3.752258908e-05
2.776214084e-05
3.272956408e-05
3.172345921e-05
3.47571709e-05
2.96303486e-05
3.087555235e-05
3.012468457e-05
3.63384999e-05
2.845507623e-05
2.475888542e-05
2.798780007e-05
3.005122274e-05
3.013751897e-05
3.119432931e-05
3.249872162e-05
2.926744009e-05
3.0127281e-05
2.904746921e-05
3.191002203e-05
3.278894459e-05
3.43275748e-05
2.594811153e-05
2.99891165e-05
3.161200975e-05
2.850610753e-05
2.694191405e-05
3.442451717e-05
2.886358157e-05
3.129972051e-05
2.917989146e-05
2.707294323e-05
2.94544743e-05
3.156401308e-05
2.885045626e-05
2.90168259e-05
3.064484786e-05
3.081102631e-05
2.954020806e-05
2.998959672e-05
3.594060501e-05
3.150995743e-05
2.705407952e-05
2.967785966e-05
3.368761023e-05
2.714617723e-05
2.877239144e-05
2.763921966e-05
3.036114397e-05
2.98395975e-05
3.01763491e-05
2.928855945e-05
2.857419102e-05
2.719106799e-05
2.995093088e-05
2.859906758e-05
2.634078162e-05
3.058515714e-05
3.438913908e-05
2.651165582e-05
2.741396978e-05
2.910247726e-05
3.171703254e-05
2.738746918e-05
2.867622237e-05
2.94028487e-05
3.300539617e-05
2.645051739e-05
2.739466229e-05
2.581843437e-05
2.852166937e-05
3.565877076e-05
3.136461203e-05
2.95808185e-05
3.318040856e-05
2.848707286e-05
2.526534136e-05
2.880711269e-05
3.158688051e-05
2.865498429e-05
3.158625659e-05
2.99267536e-05
3.057528047e-05
2.994749651e-05
2.953953999e-05
3.391330434e-05
3.04190004e-05
3.184603215e-05
3.008622165e-05
2.732633865e-05
2.87038461e-05
3.051706844e-05
3.35542278e-05
3.21251592e-05
2.929045412e-05
3.228104103e-05
3.064181459e-05
3.277974792e-05
2.82879388e-05
3.332827526e-05
3.022910731e-05
2.744930924e-05
3.07256176e-05
3.102267753e-05
3.034361317e-05
2.98170703e-05
3.028868237e-05
3.165549498e-05
2.901924221e-05
3.019424043e-05
2.835044065e-05
2.811295545e-05
2.908601909e-05
2.891280469e-05
3.134150608e-05
3.433279583e-05
2.990791734e-05
2.715232746e-05
2.747072744e-05
3.003928947e-05
3.025921697e-05
3.174572765e-05
2.960818774e-05
3.1829848e-05
2.879429624e-05
2.935014551e-05
2.659918925e-05
3.505514522e-05
2.981926517e-05
2.396178069e-05
2.5774039e-05
3.402814305e-05
2.943748562e-05
2.524988241e-05
2.864214123e-05
2.685399945e-05
2.985360868e-05
2.979296835e-05
3.206243504e-05
3.048416365e-05
3.213964778e-05
3.137474772e-05
2.863324693e-05
3.150946435e-05
3.021645721e-05
3.106408229e-05
3.344090084e-05
2.963209618e-05
3.289450266e-05
2.823784386e-05
3.30182894e-05
2.823291553e-05
3.122424626e-05
3.073008134e-05
2.991838786e-05
2.721624498e-05
2.955066286e-05
2.415984826e-05
3.425598253e-05
2.740443239e-05
3.172155722e-05
2.701766281e-05
2.796730289e-05
3.351175379e-05
3.071225576e-05
2.736132468e-05
3.113310686e-05
2.854566552e-05
3.084972965e-05
2.968560009e-05
3.284631455e-05
2.826899601e-05
2.846653069e-05
2.884988429e-05
3.532829794e-05
2.659537782e-05
3.056725774e-05
3.440983734e-05
3.320584417e-05
3.05502649e-05
3.104004618e-05
2.74511285e-05
2.949570987e-05
2.829762701e-05
3.091263559e-05
3.084477704e-05
3.109881943e-05
2.504402184e-05
3.11787178e-05
2.627871028e-05
2.912911255e-05
3.045094734e-05
2.646309599e-05
3.291872028e-05
3.054956403e-05
2.873387604e-05
2.991964149e-05
2.949721523e-05
2.762743349e-05
3.153587936e-05
2.806544637e-05
2.623595345e-05
2.5824598e-05
2.566952572e-05
3.336391265e-05
3.034796206e-05
2.911456564e-05
3.150684931e-05
3.307966613e-05
3.250061988e-05
2.638291325e-05
3.05514094e-05
3.367820908e-05
2.976474471e-05
2.721931306e-05
2.85617274e-05
3.3805796e-05
2.976999737e-05
2.992368083e-05
3.456015175e-05
2.986692624e-05
3.13022878e-05
2.929044321e-05
3.02256316e-05
3.102156412e-05
2.903882512e-05
3.03781599e-05
3.052689438e-05
3.262469697e-05
2.659431786e-05
3.291672852e-05
3.133600241e-05
2.950146528e-05
2.825844715e-05
2.983347358e-05
3.271062445e-05
2.689999816e-05
3.036481879e-05
2.84142487e-05
2.885506632e-05
2.737098593e-05
2.675399178e-05
3.071471181e-05
3.036560549e-05
2.602067105e-05
2.345803183e-05
3.156512763e-05
2.620714892e-05
3.047482271e-05
2.641276877e-05
2.870313734e-05
3.64772342e-05
2.952738122e-05
3.033386167e-05
3.234018118e-05
2.725616726e-05
2.633267638e-05
2.727062825e-05
2.922868697e-05
2.754450242e-05
3.099744687e-05
2.690009467e-05
2.775917337e-05
3.502981873e-05
2.892697748e-05
2.953352098e-05
2.629082447e-05
2.636302232e-05
3.03632946e-05
2.699681991e-05
2.736994289e-05
2.943980078e-05
3.067492147e-05
3.335731492e-05
3.351199338e-05
2.814365485e-05
3.082009086e-05
3.135543531e-05
2.585871543e-05
3.378846387e-05
2.969529186e-05
2.893795629e-05
2.993545626e-05
3.083883516e-05
3.126296274e-05
3.0958237e-05
3.031414467e-05
3.042214601e-05
2.889458492e-05
2.824999912e-05
2.974251343e-05
2.831370234e-05
3.335002025e-05
3.089466029e-05
2.819627897e-05
2.733316019e-05
3.283680966e-05
3.238795527e-05
3.238876819e-05
3.192185349e-05
3.073603781e-05
3.402607661e-05
3.078462556e-05
3.152451035e-05
3.398995315e-05
3.220194925e-05
3.269627687e-05
3.085421795e-05
3.296105822e-05
2.897036595e-05
3.278369856e-05
3.276901666e-05
2.942438252e-05
2.750516737e-05
3.02519924e-05
3.088818215e-05
3.191079963e-05
2.905792648e-05
2.650730373e-05
2.785144923e-05
3.038175217e-05
2.730434695e-05
3.244598846e-05
2.72592817e-05
3.222879433e-05
2.707193746e-05
3.164518894e-05
3.058906212e-05
2.614132925e-05
3.055734553e-05
3.128298704e-05
3.182012885e-05
2.900611117e-05
3.125466961e-05
3.222797275e-05
3.03899678e-05
2.988946388e-05
3.120694421e-05
2.70756089e-05
3.292485144e-05
3.184850105e-05
2.910874938e-05
2.833506322e-05
2.577414274e-05
2.625839113e-05
2.660488176e-05
3.055886427e-05
2.559964746e-05
2.958935035e-05
2.617140091e-05
2.752744367e-05
3.011789229e-05
3.198617682e-05
3.207943083e-05
2.915546325e-05
2.9314867e-05
2.883615462e-05
2.863735168e-05
3.465041201e-05
2.711569289e-05
3.185889145e-05
2.84755303e-05
3.117238972e-05
2.987000237e-05
2.507523097e-05
2.817863609e-05
3.029235733e-05
3.002469169e-05
2.705484424e-05
3.099084752e-05
3.194970895e-05
2.860174161e-05
3.190986375e-05
2.980942203e-05
3.353993006e-05
2.866449226e-05
3.341778807e-05
3.169239295e-05
2.91864888e-05
2.890535439e-05
3.185886328e-05
3.297069642e-05
2.815364314e-05
2.942424085e-05
2.878669815e-05
2.867348336e-05
3.034159479e-05
2.550955649e-05
3.137564433e-05
2.83273014e-05
2.638604711e-05
3.013313115e-05
3.011754803e-05
2.971639249e-05
2.961421434e-05
3.136449489e-05
2.998103379e-05
2.871926889e-05
2.817392854e-05
2.883494406e-05
2.863619943e-05
2.876187513e-05
2.53633624e-05
2.928204464e-05
3.169422458e-05
3.41834772e-05
3.089461993e-05
2.53361789e-05
3.305633556e-05
3.375008948e-05
3.069038514e-05
3.02126772e-05
3.483072434e-05
2.974455518e-05
3.246091498e-05
2.761749985e-05
2.586848904e-05
3.091855724e-05
3.015454062e-05
3.070820848e-05
3.129399598e-05
3.090882693e-05
2.764862545e-05
3.219942501e-05
2.776142724e-05
2.915806682e-05
2.929989154e-05
3.111738894e-05
2.982561119e-05
3.14438383e-05
3.081350272e-05
2.949532228e-05
2.632012885e-05
3.20521251e-05
3.261777871e-05
3.118106842e-05
3.06428506e-05
2.737065063e-05
2.847942639e-05
3.046451495e-05
3.089222059e-05
3.326214938e-05
2.923395601e-05
2.623497672e-05
3.592962459e-05
3.167978358e-05
2.937587375e-05
3.198621412e-05
2.462564809e-05
2.468205725e-05
2.988967284e-05
2.93788675e-05
3.094761162e-05
2.866518582e-05
3.063127394e-05
2.73800441e-05
2.959402413e-05
2.67735625e-05
3.351512031e-05
3.02774849e-05
2.851436871e-05
2.720723022e-05
2.704652521e-05
3.063899116e-05
3.138600345e-05
2.605961152e-05
2.905151632e-05
3.030634672e-05
2.941541098e-05
3.32346995e-05
2.693932617e-05
2.861350859e-05
2.532459052e-05
2.72027455e-05
2.897763055e-05
2.745254676e-05
3.500016632e-05
2.886814712e-05
2.934076918e-05
2.936607975e-05
3.176202909e-05
2.983699073e-05
3.332332857e-05
2.692661887e-05
2.844148672e-05
2.775727197e-05
3.099002611e-05
2.876567834e-05
2.786785303e-05
2.91015876e-05
2.770744164e-05
3.409446838e-05
3.079283412e-05
2.736021573e-05
2.908837405e-05
2.582741787e-05
2.94488327e-05
2.631123229e-05
2.730580612e-05
2.981319051e-05
2.736848048e-05
3.025566476e-05
2.777277101e-05
2.7986959e-05
3.242440848e-05
2.785116609e-05
3.154687231e-05
2.885681153e-05
2.936105076e-05
2.843067472e-05
2.796048234e-05
2.865259482e-05
3.206245522e-05
2.680375921e-05
2.652496851e-05
3.122354963e-05
2.649574984e-05
3.319567203e-05
2.994889158e-05
2.78914624e-05
2.865168856e-05
2.636365567e-05
2.943772852e-05
3.280006123e-05
3.11015915e-05
2.795897889e-05
2.622274626e-05
2.623170447e-05
2.173938644e-05
2.777774538e-05
2.62071005e-05
2.699399421e-05
3.11193932e-05
2.941580479e-05
2.716471349e-05
2.877941649e-05
2.288610812e-05
2.609867994e-05
2.74783721e-05