/*--------------------------------*- C++ -*----------------------------------*\
  =========                 |
  \\      /  F ield         | OpenFOAM: The Open Source CFD Toolbox
   \\    /   O peration     | Website:  https://openfoam.org
    \\  /    A nd           | Version:  6
     \\/     M anipulation  |
\*---------------------------------------------------------------------------*/
FoamFile
{
    version     2.0;
    format      ascii;
    class       volScalarField;
    location    "20.5";
    object      internalEMean;
}
// * * * * * * * * * * * * * * * * * * * * * * * * * * * * * * * * * * * * * //

dimensions      [1 -1 -2 0 0 0 0];

internalField   nonuniform List<scalar> 
3600
(
2.816228745e-05
2.816088486e-05
2.819366219e-05
2.821514453e-05
2.824363852e-05
2.826799268e-05
2.829907572e-05
2.831856736e-05
2.832971688e-05
2.83632984e-05
2.838732221e-05
2.841635323e-05
2.846214579e-05
2.849491191e-05
2.852006002e-05
2.855723658e-05
2.859706038e-05
2.863943792e-05
2.868078637e-05
2.870585616e-05
2.87453346e-05
2.880137414e-05
2.882790494e-05
2.888659258e-05
2.894110063e-05
2.897631979e-05
2.9018006e-05
2.907210101e-05
2.911170287e-05
2.916034873e-05
2.82727208e-05
2.82271093e-05
2.824434115e-05
2.825118236e-05
2.827278026e-05
2.829618295e-05
2.831945107e-05
2.833455609e-05
2.836575731e-05
2.838560704e-05
2.842061579e-05
2.845160944e-05
2.848560751e-05
2.851090576e-05
2.85515687e-05
2.85661479e-05
2.86041593e-05
2.863768861e-05
2.868042298e-05
2.872648445e-05
2.876364685e-05
2.881167707e-05
2.885461256e-05
2.88950135e-05
2.894469836e-05
2.897758493e-05
2.902503663e-05
2.907777353e-05
2.911272778e-05
2.916382834e-05
2.829801654e-05
2.829803838e-05
2.829171278e-05
2.830761186e-05
2.83109683e-05
2.832930634e-05
2.833660126e-05
2.837030764e-05
2.839693409e-05
2.840624734e-05
2.84541906e-05
2.8468388e-05
2.848808664e-05
2.852557093e-05
2.856323953e-05
2.859829668e-05
2.863670722e-05
2.866820611e-05
2.869471418e-05
2.871830397e-05
2.877534734e-05
2.881494834e-05
2.885625453e-05
2.889807683e-05
2.893146654e-05
2.899927122e-05
2.903592679e-05
2.908954356e-05
2.91051935e-05
2.917601806e-05
2.833690662e-05
2.833068036e-05
2.831457117e-05
2.833221692e-05
2.833329753e-05
2.835894945e-05
2.836721372e-05
2.839256337e-05
2.840978679e-05
2.84325991e-05
2.845331567e-05
2.849277859e-05
2.851917555e-05
2.855187122e-05
2.858229033e-05
2.859899817e-05
2.864762869e-05
2.866691776e-05
2.871773481e-05
2.873260145e-05
2.878806229e-05
2.883995676e-05
2.886749113e-05
2.890468745e-05
2.893622527e-05
2.89857061e-05
2.902969418e-05
2.908654918e-05
2.91342742e-05
2.917265963e-05
2.836798523e-05
2.835689121e-05
2.835189251e-05
2.837034265e-05
2.837045314e-05
2.837690141e-05
2.840278057e-05
2.839966225e-05
2.842452112e-05
2.844930056e-05
2.846039235e-05
2.849924324e-05
2.852006135e-05
2.856310001e-05
2.857712206e-05
2.859255566e-05
2.864737775e-05
2.867852213e-05
2.871673636e-05
2.875087391e-05
2.87884747e-05
2.884384934e-05
2.886407965e-05
2.891295283e-05
2.895650676e-05
2.900835672e-05
2.904054391e-05
2.908746223e-05
2.91211586e-05
2.918126449e-05
2.839698463e-05
2.83841205e-05
2.838180241e-05
2.838521308e-05
2.839260949e-05
2.838745663e-05
2.842033469e-05
2.842804643e-05
2.844241402e-05
2.847193385e-05
2.850137393e-05
2.8513826e-05
2.853960035e-05
2.855956271e-05
2.858839271e-05
2.864212725e-05
2.865946297e-05
2.867912562e-05
2.872065048e-05
2.876983973e-05
2.880013711e-05
2.884389174e-05
2.887780405e-05
2.891073006e-05
2.897520628e-05
2.900817174e-05
2.904052472e-05
2.90862208e-05
2.913355312e-05
2.919228662e-05
2.841354194e-05
2.841139148e-05
2.840312088e-05
2.838479291e-05
2.839581986e-05
2.841727062e-05
2.843348897e-05
2.845040225e-05
2.846418448e-05
2.848117098e-05
2.849671871e-05
2.853094832e-05
2.855747808e-05
2.85885204e-05
2.861220168e-05
2.864380558e-05
2.86778281e-05
2.870051343e-05
2.87377608e-05
2.877847445e-05
2.881514652e-05
2.88411761e-05
2.887607708e-05
2.892455982e-05
2.897236613e-05
2.900991629e-05
2.905641263e-05
2.909049673e-05
2.913612282e-05
2.917437175e-05
2.841669785e-05
2.841959158e-05
2.842044921e-05
2.8419038e-05
2.84429985e-05
2.84300692e-05
2.844556153e-05
2.846472712e-05
2.847998616e-05
2.849531642e-05
2.851098143e-05
2.853136546e-05
2.856579641e-05
2.859373395e-05
2.862305145e-05
2.865158706e-05
2.868112009e-05
2.871464758e-05
2.873934984e-05
2.878204549e-05
2.881266364e-05
2.88583579e-05
2.888760442e-05
2.892938499e-05
2.898436329e-05
2.901250347e-05
2.905742729e-05
2.910685456e-05
2.913976787e-05
2.917523054e-05
2.844183062e-05
2.843318125e-05
2.844106968e-05
2.843612763e-05
2.844333675e-05
2.844354541e-05
2.84578766e-05
2.846910919e-05
2.849456555e-05
2.850221267e-05
2.852328004e-05
2.854836875e-05
2.858457225e-05
2.859471773e-05
2.863132282e-05
2.864734194e-05
2.8691543e-05
2.871983598e-05
2.874453181e-05
2.878716602e-05
2.882380943e-05
2.886272293e-05
2.890663747e-05
2.894109415e-05
2.898275748e-05
2.901850307e-05
2.905680643e-05
2.908716557e-05
2.913761049e-05
2.917590831e-05
2.844767976e-05
2.845264501e-05
2.843808975e-05
2.842550157e-05
2.844323422e-05
2.846830909e-05
2.845761053e-05
2.848350425e-05
2.849456566e-05
2.852097976e-05
2.853400974e-05
2.856943631e-05
2.858460304e-05
2.860825353e-05
2.864052198e-05
2.865665713e-05
2.869285397e-05
2.873083671e-05
2.876839584e-05
2.877854708e-05
2.88268921e-05
2.885818343e-05
2.889178748e-05
2.894311342e-05
2.897078852e-05
2.90104859e-05
2.906442935e-05
2.909171401e-05
2.913580086e-05
2.919785777e-05
2.845412141e-05
2.845555501e-05
2.844541431e-05
2.845124018e-05
2.846452661e-05
2.847256854e-05
2.846400205e-05
2.849741193e-05
2.849064559e-05
2.850288707e-05
2.853746066e-05
2.855668704e-05
2.85830398e-05
2.860764263e-05
2.86412801e-05
2.86790864e-05
2.869568683e-05
2.873197699e-05
2.876183385e-05
2.880956021e-05
2.882878506e-05
2.88723741e-05
2.891071722e-05
2.893864783e-05
2.898218144e-05
2.90240789e-05
2.905596011e-05
2.90982182e-05
2.912601819e-05
2.917826115e-05
2.846273047e-05
2.845683036e-05
2.845687191e-05
2.846475253e-05
2.846882153e-05
2.847925258e-05
2.848632805e-05
2.850985796e-05
2.852164432e-05
2.852213237e-05
2.855588271e-05
2.857866159e-05
2.859607567e-05
2.861928396e-05
2.864326765e-05
2.867102302e-05
2.870706807e-05
2.873414987e-05
2.876703084e-05
2.881115275e-05
2.882878866e-05
2.885051982e-05
2.890916458e-05
2.894763295e-05
2.898895584e-05
2.902032753e-05
2.906067259e-05
2.910395393e-05
2.914972541e-05
2.91906111e-05
2.847276358e-05
2.846189282e-05
2.846436761e-05
2.846443545e-05
2.846736271e-05
2.846001823e-05
2.849744732e-05
2.850027728e-05
2.851640393e-05
2.853185868e-05
2.854792398e-05
2.858512306e-05
2.859631094e-05
2.86246017e-05
2.862975295e-05
2.86812443e-05
2.870298365e-05
2.873439545e-05
2.877963375e-05
2.880130512e-05
2.883941234e-05
2.886826358e-05
2.891187346e-05
2.893456387e-05
2.898623126e-05
2.90324308e-05
2.907812444e-05
2.910746313e-05
2.915186866e-05
2.917888021e-05
2.846745296e-05
2.846679562e-05
2.845442765e-05
2.846915858e-05
2.848100947e-05
2.848026398e-05
2.848645557e-05
2.849332617e-05
2.850619504e-05
2.853610042e-05
2.854665786e-05
2.856608319e-05
2.860206968e-05
2.863028721e-05
2.864404383e-05
2.86728106e-05
2.871106372e-05
2.874323115e-05
2.877088582e-05
2.880398567e-05
2.883277131e-05
2.888514955e-05
2.8922162e-05
2.895379805e-05
2.899318654e-05
2.903945309e-05
2.907208517e-05
2.91102862e-05
2.915051296e-05
2.918249786e-05
2.846062296e-05
2.847187265e-05
2.845291422e-05
2.846552677e-05
2.846361845e-05
2.84810457e-05
2.848503021e-05
2.851540289e-05
2.852911134e-05
2.854125521e-05
2.855571167e-05
2.859767728e-05
2.860651058e-05
2.862903752e-05
2.865084811e-05
2.869008873e-05
2.870629867e-05
2.874845235e-05
2.878781133e-05
2.881408926e-05
2.885276267e-05
2.887629945e-05
2.8929224e-05
2.896046438e-05
2.899117539e-05
2.903668163e-05
2.907590355e-05
2.911927411e-05
2.913800678e-05
2.918114072e-05
2.846096088e-05
2.844885071e-05
2.843976036e-05
2.845704709e-05
2.84710773e-05
2.847592085e-05
2.84909488e-05
2.849338675e-05
2.85158194e-05
2.853296861e-05
2.855832677e-05
2.857614469e-05
2.859941304e-05
2.862432834e-05
2.865402305e-05
2.867839236e-05
2.871723795e-05
2.873999902e-05
2.877086521e-05
2.881231922e-05
2.884918528e-05
2.886166388e-05
2.889520452e-05
2.895821817e-05
2.899410428e-05
2.903537007e-05
2.906139667e-05
2.912241479e-05
2.915942367e-05
2.919995527e-05
2.845211681e-05
2.845052768e-05
2.844937509e-05
2.84480324e-05
2.845433118e-05
2.847554412e-05
2.847917371e-05
2.84975838e-05
2.851551652e-05
2.851749605e-05
2.856067872e-05
2.857759037e-05
2.860393961e-05
2.861640644e-05
2.864769645e-05
2.866933333e-05
2.871973762e-05
2.873359129e-05
2.877535515e-05
2.881145609e-05
2.885314524e-05
2.887714589e-05
2.892600993e-05
2.896010947e-05
2.900333828e-05
2.9029189e-05
2.907943268e-05
2.91213489e-05
2.915436169e-05
2.919952834e-05
2.844666352e-05
2.844969655e-05
2.845703046e-05
2.843911475e-05
2.845552718e-05
2.846779982e-05
2.846784295e-05
2.849458206e-05
2.850429037e-05
2.851938263e-05
2.854918414e-05
2.856139434e-05
2.860633366e-05
2.862887889e-05
2.864551527e-05
2.867079278e-05
2.871824368e-05
2.873221182e-05
2.875992246e-05
2.88154549e-05
2.88444818e-05
2.887437321e-05
2.89136119e-05
2.895663756e-05
2.900340872e-05
2.902403453e-05
2.908069247e-05
2.911143443e-05
2.915100395e-05
2.918788193e-05
2.844078344e-05
2.843906897e-05
2.842851743e-05
2.844013434e-05
2.844437105e-05
2.846431382e-05
2.846868335e-05
2.847479465e-05
2.850829012e-05
2.853036514e-05
2.855573267e-05
2.857246171e-05
2.858842222e-05
2.861544823e-05
2.864610926e-05
2.867405321e-05
2.869471258e-05
2.873296416e-05
2.877014362e-05
2.879464849e-05
2.883764112e-05
2.886921967e-05
2.89147862e-05
2.895665971e-05
2.899571731e-05
2.903869055e-05
2.907600909e-05
2.911402918e-05
2.9165824e-05
2.921473422e-05
2.841225734e-05
2.842203238e-05
2.842830393e-05
2.842788519e-05
2.843563412e-05
2.843761407e-05
2.846103182e-05
2.847827197e-05
2.849184331e-05
2.85177447e-05
2.853642579e-05
2.856545466e-05
2.857529308e-05
2.860228308e-05
2.864899126e-05
2.865682668e-05
2.868922916e-05
2.873065376e-05
2.877271799e-05
2.880351389e-05
2.884847344e-05
2.887715967e-05
2.89225892e-05
2.896374e-05
2.899940255e-05
2.902385057e-05
2.908317656e-05
2.912977293e-05
2.916027693e-05
2.920969723e-05
2.84047324e-05
2.842479335e-05
2.840744643e-05
2.842014655e-05
2.843708984e-05
2.843159305e-05
2.845236537e-05
2.84613178e-05
2.848566756e-05
2.849969981e-05
2.851807599e-05
2.854764593e-05
2.85753267e-05
2.859915079e-05
2.863490839e-05
2.865760993e-05
2.870315826e-05
2.873597881e-05
2.876041112e-05
2.878559528e-05
2.884048454e-05
2.887015551e-05
2.891118619e-05
2.894867356e-05
2.898900593e-05
2.903525372e-05
2.907642949e-05
2.91087026e-05
2.916621542e-05
2.921198116e-05
2.840249901e-05
2.839132908e-05
2.839970467e-05
2.8409873e-05
2.841146106e-05
2.843485339e-05
2.844961782e-05
2.846523557e-05
2.847255148e-05
2.84989123e-05
2.851084576e-05
2.853734236e-05
2.856197099e-05
2.859877566e-05
2.863200187e-05
2.865501486e-05
2.868754953e-05
2.872949607e-05
2.875023041e-05
2.879024159e-05
2.883937594e-05
2.886642292e-05
2.89065331e-05
2.895742041e-05
2.90020946e-05
2.903102884e-05
2.908078305e-05
2.911801865e-05
2.915110782e-05
2.9210724e-05
2.839435621e-05
2.837844869e-05
2.836876356e-05
2.839982029e-05
2.840819827e-05
2.842001701e-05
2.843362841e-05
2.843929183e-05
2.844927714e-05
2.847368374e-05
2.850412218e-05
2.853443827e-05
2.855998055e-05
2.85967383e-05
2.862108345e-05
2.865610719e-05
2.867664795e-05
2.870639225e-05
2.875947579e-05
2.878785469e-05
2.883154692e-05
2.888070412e-05
2.892151338e-05
2.894894382e-05
2.900001613e-05
2.904014458e-05
2.906463593e-05
2.911731631e-05
2.915847405e-05
2.919760694e-05
2.836450555e-05
2.8366972e-05
2.836307406e-05
2.837490724e-05
2.839111498e-05
2.840065484e-05
2.841037342e-05
2.842230596e-05
2.845052796e-05
2.846462079e-05
2.849952609e-05
2.852731145e-05
2.853619847e-05
2.858801367e-05
2.861661987e-05
2.865655647e-05
2.868350749e-05
2.87121241e-05
2.87454454e-05
2.879979626e-05
2.882666621e-05
2.886395685e-05
2.890464762e-05
2.895110554e-05
2.900263807e-05
2.90226819e-05
2.908069778e-05
2.912885349e-05
2.915725239e-05
2.92165175e-05
2.835078095e-05
2.834408595e-05
2.8361538e-05
2.836316131e-05
2.837057537e-05
2.83712379e-05
2.839008537e-05
2.840337256e-05
2.844030405e-05
2.847136022e-05
2.848988996e-05
2.851592981e-05
2.853510876e-05
2.857539542e-05
2.860394458e-05
2.862920616e-05
2.867182157e-05
2.86991482e-05
2.873615893e-05
2.877651869e-05
2.881961712e-05
2.886564554e-05
2.890252866e-05
2.893257488e-05
2.898747164e-05
2.90270635e-05
2.907778297e-05
2.912958394e-05
2.917321209e-05
2.919974098e-05
2.831602463e-05
2.832892665e-05
2.832497857e-05
2.834145438e-05
2.834196393e-05
2.836057463e-05
2.837820957e-05
2.841543916e-05
2.841587074e-05
2.844394734e-05
2.846811338e-05
2.849979468e-05
2.853053605e-05
2.856411836e-05
2.857321371e-05
2.861784208e-05
2.86684635e-05
2.868956319e-05
2.872979507e-05
2.87641679e-05
2.880366015e-05
2.885690995e-05
2.889259578e-05
2.893559436e-05
2.898944642e-05
2.902849981e-05
2.908764059e-05
2.912503025e-05
2.916315346e-05
2.919883033e-05
2.829092154e-05
2.830502044e-05
2.831529812e-05
2.830897678e-05
2.832384671e-05
2.834383371e-05
2.836040742e-05
2.837165598e-05
2.840633807e-05
2.842867156e-05
2.843935803e-05
2.847940275e-05
2.851683422e-05
2.853950242e-05
2.855676575e-05
2.860902262e-05
2.864872273e-05
2.870203236e-05
2.871895858e-05
2.877171719e-05
2.880526562e-05
2.883599214e-05
2.890314071e-05
2.893086401e-05
2.898563658e-05
2.903341957e-05
2.909322142e-05
2.912124052e-05
2.915619196e-05
2.922450944e-05
2.825547594e-05
2.828450724e-05
2.828950044e-05
2.829976803e-05
2.831138501e-05
2.832256815e-05
2.83403394e-05
2.835542663e-05
2.838924008e-05
2.841677986e-05
2.843659068e-05
2.846249637e-05
2.847933512e-05
2.85264917e-05
2.856842793e-05
2.862014853e-05
2.863740591e-05
2.86710766e-05
2.873224973e-05
2.876717876e-05
2.880181595e-05
2.884379962e-05
2.887493291e-05
2.893790011e-05
2.897898853e-05
2.904025246e-05
2.906542173e-05
2.911475152e-05
2.916643375e-05
2.922205668e-05
2.825823032e-05
2.824501849e-05
2.825976336e-05
2.827435083e-05
2.828074352e-05
2.830371731e-05
2.831560456e-05
2.83355673e-05
2.836731824e-05
2.840328177e-05
2.84294435e-05
2.845497164e-05
2.84802735e-05
2.851570714e-05
2.854947718e-05
2.858698712e-05
2.861255941e-05
2.867881821e-05
2.869757973e-05
2.874973757e-05
2.879029902e-05
2.883896933e-05
2.888238942e-05
2.893209629e-05
2.896556507e-05
2.902361464e-05
2.906499739e-05
2.912073301e-05
2.917611361e-05
2.920628332e-05
2.819962865e-05
2.822071256e-05
2.823397951e-05
2.823969619e-05
2.825538221e-05
2.827959687e-05
2.828504419e-05
2.83208541e-05
2.833921345e-05
2.836853955e-05
2.840539928e-05
2.843659657e-05
2.847662607e-05
2.851193318e-05
2.855066995e-05
2.858442992e-05
2.860809028e-05
2.865607625e-05
2.869947073e-05
2.874860485e-05
2.878057477e-05
2.88379515e-05
2.888309474e-05
2.893026746e-05
2.89809775e-05
2.901906387e-05
2.906948517e-05
2.911774867e-05
2.91667691e-05
2.922930278e-05
2.923049187e-05
2.927468006e-05
2.931205523e-05
2.934914901e-05
2.939083058e-05
2.942998194e-05
2.949162802e-05
2.954070531e-05
2.958293665e-05
2.962088248e-05
2.967062764e-05
2.972334377e-05
2.976714948e-05
2.981814279e-05
2.984572701e-05
2.988676748e-05
2.991504796e-05
2.995911492e-05
3.00044148e-05
3.002309032e-05
3.005783234e-05
3.010748528e-05
3.013883388e-05
3.016625774e-05
3.019533598e-05
3.021236894e-05
3.024772798e-05
3.029017592e-05
3.029576378e-05
3.03066933e-05
2.921671524e-05
2.925832122e-05
2.930341142e-05
2.935015745e-05
2.939830601e-05
2.943365175e-05
2.949079932e-05
2.953669725e-05
2.957361385e-05
2.962863947e-05
2.966605165e-05
2.968887477e-05
2.975150592e-05
2.979413075e-05
2.982399917e-05
2.987413921e-05
2.990904059e-05
2.995781208e-05
2.998230391e-05
3.000411389e-05
3.00486929e-05
3.007565551e-05
3.010137246e-05
3.013717467e-05
3.018127688e-05
3.017859687e-05
3.021073142e-05
3.023927178e-05
3.02484618e-05
3.023458494e-05
2.92124006e-05
2.926016134e-05
2.931369402e-05
2.936115868e-05
2.93951679e-05
2.945679856e-05
2.948943937e-05
2.952518441e-05
2.956782738e-05
2.962122542e-05
2.965684356e-05
2.970991946e-05
2.974473232e-05
2.97779539e-05
2.981878929e-05
2.986277212e-05
2.990776871e-05
2.993715988e-05
2.996587064e-05
2.99971211e-05
3.00210485e-05
3.005960081e-05
3.008955935e-05
3.010337749e-05
3.014408932e-05
3.016171683e-05
3.018549049e-05
3.019491537e-05
3.019715029e-05
3.01734233e-05
2.920596925e-05
2.92616919e-05
2.930080742e-05
2.934422333e-05
2.939485182e-05
2.944356803e-05
2.947290064e-05
2.952705374e-05
2.957496444e-05
2.959940515e-05
2.965932496e-05
2.970294903e-05
2.97408545e-05
2.976239058e-05
2.981067018e-05
2.985019415e-05
2.989116086e-05
2.991240614e-05
2.99517854e-05
2.999954271e-05
3.002724555e-05
3.004441205e-05
3.006360227e-05
3.009033638e-05
3.01255246e-05
3.01294809e-05
3.015228964e-05
3.015515381e-05
3.016095995e-05
3.014980012e-05
2.922386824e-05
2.924680266e-05
2.929944933e-05
2.933299181e-05
2.939634391e-05
2.944101069e-05
2.948749393e-05
2.951936166e-05
2.95685691e-05
2.958434968e-05
2.966244938e-05
2.968858631e-05
2.973114981e-05
2.976382138e-05
2.980641295e-05
2.984254374e-05
2.98733171e-05
2.989178016e-05
2.994703958e-05
2.996534399e-05
3.000877152e-05
3.002669125e-05
3.005888302e-05
3.006674262e-05
3.010030461e-05
3.010807004e-05
3.012261377e-05
3.012178581e-05
3.013288003e-05
3.012264196e-05
2.922173329e-05
2.925917713e-05
2.930607879e-05
2.935877851e-05
2.938958091e-05
2.94441976e-05
2.948424193e-05
2.952087464e-05
2.955925671e-05
2.961371125e-05
2.965629146e-05
2.967930369e-05
2.972047153e-05
2.975798493e-05
2.978891138e-05
2.98295714e-05
2.987098894e-05
2.991331285e-05
2.992256314e-05
2.995712423e-05
2.998885322e-05
3.001535391e-05
3.004120846e-05
3.006177139e-05
3.006674003e-05
3.009437265e-05
3.008315548e-05
3.010226861e-05
3.009625465e-05
3.011830126e-05
2.92080601e-05
2.925546971e-05
2.93191081e-05
2.935605915e-05
2.939588754e-05
2.943957935e-05
2.94916844e-05
2.952188085e-05
2.956167893e-05
2.961937693e-05
2.964321249e-05
2.966820618e-05
2.971391267e-05
2.975532872e-05
2.978409896e-05
2.983358038e-05
2.985948652e-05
2.988462421e-05
2.991966291e-05
2.994600179e-05
2.998541654e-05
2.998788243e-05
3.001906691e-05
3.00400071e-05
3.006030918e-05
3.007523816e-05
3.009613893e-05
3.008333872e-05
3.009266352e-05
3.008430237e-05
2.921845314e-05
2.926239127e-05
2.930493685e-05
2.934935632e-05
2.940200642e-05
2.945011429e-05
2.946926039e-05
2.951627713e-05
2.956221208e-05
2.960210485e-05
2.963758747e-05
2.967347085e-05
2.971461604e-05
2.974726424e-05
2.978058554e-05
2.983431947e-05
2.985623304e-05
2.988497631e-05
2.990882163e-05
2.99306519e-05
2.995528307e-05
2.998737916e-05
3.00209655e-05
3.003096621e-05
3.003313635e-05
3.005766475e-05
3.00836138e-05
3.007610686e-05
3.006587967e-05
3.007549917e-05
2.922316378e-05
2.926601127e-05
2.930078332e-05
2.935073837e-05
2.939557631e-05
2.942908684e-05
2.948354926e-05
2.95250605e-05
2.955898415e-05
2.95789334e-05
2.963812086e-05
2.967256785e-05
2.970414914e-05
2.97442153e-05
2.978993235e-05
2.982240681e-05
2.985439933e-05
2.988032332e-05
2.991048142e-05
2.992284022e-05
2.995064375e-05
2.997071711e-05
3.000181956e-05
3.001012923e-05
3.002954589e-05
3.00492204e-05
3.005277648e-05
3.00574357e-05
3.005656135e-05
3.005034999e-05
2.922392197e-05
2.927459621e-05
2.931406419e-05
2.934467974e-05
2.938703595e-05
2.94367004e-05
2.948486489e-05
2.951275256e-05
2.954401918e-05
2.959074473e-05
2.963505496e-05
2.968130509e-05
2.970788901e-05
2.974102114e-05
2.978040358e-05
2.981691368e-05
2.982328782e-05
2.986802552e-05
2.989467137e-05
2.992326546e-05
2.995230644e-05
2.996991352e-05
3.00058837e-05
3.001730441e-05
3.001913675e-05
3.002863475e-05
3.003696594e-05
3.004962181e-05
3.005008591e-05
3.006350446e-05
2.921978627e-05
2.926351801e-05
2.930738957e-05
2.934462999e-05
2.940440571e-05
2.943905711e-05
2.946315846e-05
2.951669865e-05
2.956316747e-05
2.959486155e-05
2.963680824e-05
2.966884781e-05
2.97104119e-05
2.975170354e-05
2.97738286e-05
2.981184339e-05
2.98516428e-05
2.986799275e-05
2.989162964e-05
2.992193701e-05
2.995563642e-05
2.996961848e-05
2.99791125e-05
3.00119069e-05
3.003118494e-05
3.003267973e-05
3.002690349e-05
3.005495956e-05
3.004707461e-05
3.005028055e-05
2.922392938e-05
2.926012934e-05
2.931281981e-05
2.933840379e-05
2.939380545e-05
2.945008132e-05
2.947621782e-05
2.951588475e-05
2.955285211e-05
2.960286698e-05
2.963018395e-05
2.966993983e-05
2.970501842e-05
2.972983905e-05
2.97566616e-05
2.981110616e-05
2.984692225e-05
2.984357264e-05
2.990844056e-05
2.992237348e-05
2.99484188e-05
2.996863665e-05
2.99969602e-05
3.000818833e-05
3.002901502e-05
3.004755e-05
3.00248772e-05
3.004885423e-05
3.004126595e-05
3.004720662e-05
2.923338744e-05
2.927439057e-05
2.932865995e-05
2.935575417e-05
2.937952051e-05
2.943730193e-05
2.948645264e-05
2.950679698e-05
2.955268769e-05
2.959878576e-05
2.963720779e-05
2.966793621e-05
2.970137298e-05
2.975457817e-05
2.977606289e-05
2.981540191e-05
2.983715333e-05
2.986802493e-05
2.989816109e-05
2.99125481e-05
2.99679231e-05
2.997163901e-05
3.000556289e-05
3.000030983e-05
3.002855906e-05
3.003293449e-05
3.003418834e-05
3.004860461e-05
3.005255409e-05
3.005030404e-05
2.923051863e-05
2.927127049e-05
2.931378066e-05
2.935368504e-05
2.93957913e-05
2.944380968e-05
2.947420405e-05
2.952306637e-05
2.955319355e-05
2.960204591e-05
2.963659132e-05
2.968316197e-05
2.969956028e-05
2.975103985e-05
2.978474551e-05
2.981380979e-05
2.983649131e-05
2.987138668e-05
2.990297818e-05
2.992661918e-05
2.994351305e-05
2.997355592e-05
2.999568809e-05
3.000634173e-05
3.002369318e-05
3.003393632e-05
3.004442683e-05
3.004320235e-05
3.006096101e-05
3.006261577e-05
2.92335325e-05
2.92825007e-05
2.933631775e-05
2.935626042e-05
2.939886096e-05
2.944461158e-05
2.949074408e-05
2.952102105e-05
2.955230509e-05
2.96009125e-05
2.964190661e-05
2.967223296e-05
2.971001845e-05
2.973003857e-05
2.977981154e-05
2.9810527e-05
2.985961878e-05
2.98701183e-05
2.990395e-05
2.993631588e-05
2.99497733e-05
2.997110145e-05
2.999472303e-05
3.001985252e-05
3.002917679e-05
3.00365136e-05
3.006526104e-05
3.006222869e-05
3.007925568e-05
3.006532474e-05
2.924361173e-05
2.92820939e-05
2.932481802e-05
2.9362012e-05
2.940492587e-05
2.942883572e-05
2.947904161e-05
2.951279402e-05
2.956578631e-05
2.960187292e-05
2.963870497e-05
2.96801199e-05
2.970994239e-05
2.97494149e-05
2.978755952e-05
2.982078247e-05
2.986504741e-05
2.987860318e-05
2.992175758e-05
2.993950061e-05
2.996136926e-05
2.999707415e-05
2.999587244e-05
3.003169266e-05
3.003240065e-05
3.005527346e-05
3.005618261e-05
3.007253717e-05
3.008103141e-05
3.006523336e-05
2.92407219e-05
2.927329157e-05
2.931575224e-05
2.937159799e-05
2.940793876e-05
2.944871101e-05
2.948909804e-05
2.953252946e-05
2.955709944e-05
2.959726224e-05
2.963420464e-05
2.968185086e-05
2.971747842e-05
2.974427445e-05
2.978313807e-05
2.981703513e-05
2.986624142e-05
2.988451029e-05
2.991774939e-05
2.994381844e-05
2.996735728e-05
2.999835904e-05
3.001681579e-05
3.002962186e-05
3.005172534e-05
3.006128563e-05
3.007516613e-05
3.008038736e-05
3.008933138e-05
3.008180275e-05
2.923481718e-05
2.927776258e-05
2.932356442e-05
2.935812557e-05
2.940181582e-05
2.945168399e-05
2.947558565e-05
2.951789452e-05
2.958078666e-05
2.961261507e-05
2.96447597e-05
2.968882093e-05
2.972251145e-05
2.978011543e-05
2.97863072e-05
2.983711316e-05
2.986244661e-05
2.988607598e-05
2.992059501e-05
2.994100325e-05
2.996804369e-05
2.999808233e-05
3.001169038e-05
3.004003388e-05
3.006863603e-05
3.007955541e-05
3.009093253e-05
3.011268867e-05
3.010562342e-05
3.011003282e-05
2.923885887e-05
2.925949885e-05
2.932828005e-05
2.936829173e-05
2.941236982e-05
2.944422504e-05
2.948694436e-05
2.953969567e-05
2.95715143e-05
2.960408493e-05
2.96563658e-05
2.970237781e-05
2.974364362e-05
2.975429867e-05
2.980515044e-05
2.984180423e-05
2.985529405e-05
2.990818929e-05
2.993691767e-05
2.996293191e-05
2.998795329e-05
3.000028923e-05
3.002843685e-05
3.006012019e-05
3.006094008e-05
3.00771689e-05
3.008931851e-05
3.010234912e-05
3.011758663e-05
3.011619654e-05
2.92347075e-05
2.929442698e-05
2.933036272e-05
2.938519323e-05
2.943070276e-05
2.945925229e-05
2.94858948e-05
2.954894967e-05
2.958921756e-05
2.961384854e-05
2.965968866e-05
2.970550629e-05
2.974592713e-05
2.978511425e-05
2.982257903e-05
2.984462582e-05
2.988498578e-05
2.991275258e-05
2.993691168e-05
2.997132898e-05
2.999398072e-05
3.002691838e-05
3.005291657e-05
3.006904146e-05
3.007794105e-05
3.010023839e-05
3.010711885e-05
3.012775554e-05
3.011992046e-05
3.014778786e-05
2.926024633e-05
2.929196144e-05
2.934312547e-05
2.938819934e-05
2.942382253e-05
2.946478319e-05
2.950372997e-05
2.955077945e-05
2.95855185e-05
2.963052572e-05
2.966306666e-05
2.970329e-05
2.974713997e-05
2.978907936e-05
2.982513991e-05
2.985987498e-05
2.989880555e-05
2.993783726e-05
2.995562479e-05
2.998993699e-05
3.002167739e-05
3.00443468e-05
3.006715283e-05
3.010706431e-05
3.009390147e-05
3.011913247e-05
3.014378279e-05
3.015189392e-05
3.01437083e-05
3.013905176e-05
2.924517368e-05
2.928683421e-05
2.934627403e-05
2.938063838e-05
2.940701373e-05
2.946296563e-05
2.95325622e-05
2.957032736e-05
2.959499579e-05
2.963715607e-05
2.967870832e-05
2.971982336e-05
2.97612431e-05
2.97820298e-05
2.983551865e-05
2.988575199e-05
2.991627029e-05
2.993002357e-05
2.997044129e-05
3.000477291e-05
3.002054933e-05
3.005375153e-05
3.008510049e-05
3.01098047e-05
3.012541455e-05
3.014756101e-05
3.015884315e-05
3.016336855e-05
3.017863489e-05
3.017919262e-05
2.926401436e-05
2.928702214e-05
2.93456098e-05
2.93917709e-05
2.941778076e-05
2.947275469e-05
2.951792266e-05
2.956554653e-05
2.959846086e-05
2.965630797e-05
2.968992586e-05
2.974026773e-05
2.976320367e-05
2.980914138e-05
2.983449408e-05
2.98815624e-05
2.992897243e-05
2.995919154e-05
2.99850662e-05
3.001179716e-05
3.004455216e-05
3.005976279e-05
3.010855146e-05
3.012168304e-05
3.015174956e-05
3.016802678e-05
3.016985722e-05
3.019066037e-05
3.019562921e-05
3.02028689e-05
2.924526945e-05
2.930636553e-05
2.935521641e-05
2.937565909e-05
2.943020498e-05
2.949097256e-05
2.952336365e-05
2.956607362e-05
2.962313574e-05
2.966669107e-05
2.970043788e-05
2.973029742e-05
2.979452706e-05
2.981118007e-05
2.985613639e-05
2.990041227e-05
2.993911214e-05
2.996589074e-05
3.000135423e-05
3.003759016e-05
3.007012975e-05
3.008513071e-05
3.011932867e-05
3.01414692e-05
3.016616244e-05
3.018672248e-05
3.020474021e-05
3.021197847e-05
3.021056829e-05
3.022596728e-05
2.924061679e-05
2.929694572e-05
2.934772173e-05
2.939839259e-05
2.944002948e-05
2.950140001e-05
2.952878012e-05
2.95644098e-05
2.962408771e-05
2.96518891e-05
2.970527232e-05
2.974735199e-05
2.978728232e-05
2.982448747e-05
2.98785305e-05
2.989724206e-05
2.993641638e-05
2.998081929e-05
3.001628294e-05
3.00589012e-05
3.009317047e-05
3.013041606e-05
3.014170695e-05
3.01695751e-05
3.019959335e-05
3.021180329e-05
3.021503697e-05
3.022866647e-05
3.024510771e-05
3.027121536e-05
2.925589198e-05
2.930751121e-05
2.935200026e-05
2.939092721e-05
2.943617007e-05
2.949805068e-05
2.953708432e-05
2.957950862e-05
2.96426893e-05
2.967110058e-05
2.971020985e-05
2.975855131e-05
2.981699076e-05
2.984533268e-05
2.988801142e-05
2.99280309e-05
2.9974381e-05
3.000297047e-05
3.004973601e-05
3.007946254e-05
3.011020919e-05
3.012917277e-05
3.016019462e-05
3.018668793e-05
3.021437215e-05
3.023999019e-05
3.026443706e-05
3.027821158e-05
3.027445351e-05
3.028795394e-05
2.927242267e-05
2.930055156e-05
2.934259352e-05
2.939955773e-05
2.945765886e-05
2.950212614e-05
2.953950573e-05
2.957984724e-05
2.964645692e-05
2.967924248e-05
2.971383819e-05
2.977224831e-05
2.981739996e-05
2.985417609e-05
2.990598635e-05
2.994408359e-05
2.997375469e-05
3.001300535e-05
3.005487732e-05
3.010543748e-05
3.012068991e-05
3.018005747e-05
3.018972244e-05
3.021941271e-05
3.026405125e-05
3.024668423e-05
3.028080014e-05
3.02829342e-05
3.030905085e-05
3.032079828e-05
2.927314937e-05
2.931841299e-05
2.937161475e-05
2.940001617e-05
2.946399125e-05
2.950481538e-05
2.955829328e-05
2.960053479e-05
2.965190873e-05
2.96992814e-05
2.975403615e-05
2.978410048e-05
2.982291804e-05
2.986144497e-05
2.992533226e-05
2.996378464e-05
2.999360897e-05
3.004201188e-05
3.007281252e-05
3.012141998e-05
3.016058723e-05
3.017948257e-05
3.021317135e-05
3.024054463e-05
3.026164605e-05
3.02957875e-05
3.031874214e-05
3.032607704e-05
3.035196678e-05
3.035269747e-05
2.926711293e-05
2.931024658e-05
2.93655341e-05
2.941098884e-05
2.945954516e-05
2.950663801e-05
2.956811212e-05
2.961202139e-05
2.966345575e-05
2.971998591e-05
2.975990362e-05
2.980995394e-05
2.985127203e-05
2.989576267e-05
2.992454358e-05
2.998631247e-05
3.001331808e-05
3.007137429e-05
3.011042608e-05
3.012536125e-05
3.017379395e-05
3.019792345e-05
3.024237572e-05
3.025543603e-05
3.0293533e-05
3.034441835e-05
3.033960847e-05
3.036189178e-05
3.038395111e-05
3.04073402e-05
2.927490807e-05
2.93007958e-05
2.935763474e-05
2.94144964e-05
2.946196473e-05
2.953013691e-05
2.957702158e-05
2.961305697e-05
2.967075567e-05
2.971827609e-05
2.976103516e-05
2.982311116e-05
2.983973518e-05
2.990995389e-05
2.996209524e-05
2.99967874e-05
3.004288438e-05
3.008006232e-05
3.012851876e-05
3.016888888e-05
3.020958228e-05
3.023851707e-05
3.026701342e-05
3.029855995e-05
3.034837376e-05
3.03550636e-05
3.0360751e-05
3.038515396e-05
3.043625089e-05
3.042649235e-05
2.818404216e-05
2.818946864e-05
2.820511522e-05
2.821319003e-05
2.824074414e-05
2.825777115e-05
2.826998129e-05
2.829477079e-05
2.832600598e-05
2.835631697e-05
2.839701376e-05
2.842184449e-05
2.844245272e-05
2.847286388e-05
2.85355003e-05
2.855562451e-05
2.86150197e-05
2.86500506e-05
2.868607196e-05
2.873618703e-05
2.878148969e-05
2.88338095e-05
2.887629286e-05
2.892452872e-05
2.897220281e-05
2.902004727e-05
2.905610649e-05
2.912296973e-05
2.917945547e-05
2.922183394e-05
2.816490545e-05
2.816568566e-05
2.818059544e-05
2.818789857e-05
2.820853184e-05
2.822111292e-05
2.824276182e-05
2.826590443e-05
2.829545087e-05
2.832947774e-05
2.836522085e-05
2.840314886e-05
2.844479794e-05
2.848484839e-05
2.851043814e-05